created by fftool

9487 atoms
5085 bonds
2520 angles
4 atom types
1 bond types
1 angle types
   -17.153631885    18.003017118 xlo xhi
   -17.855467919    17.553981017 ylo yhi
   -34.618715923    34.618715923 zlo zhi

Masses

   1   39.098  # K
   2    1.008  # Hw
   3   15.999  # Ow
   4   12.011
   
Bond Coeffs

   1   517.630258     1.000000  # Ow-Hw

Angle Coeffs

   1    37.950526   109.470000  # Hw-Ow-Hw

Atoms

      1       1    1   1.000000 -5.250180e+00 -1.380679e+01  3.009136e+01  # K K+
      2       2    1   1.000000 -7.989388e+00 -1.079521e+01 -5.718226e+00  # K K+
      3       3    1   1.000000 -1.506438e+01 -1.036062e+01  1.547729e+01  # K K+
      4       4    1   1.000000  8.969970e+00 -8.964194e+00  3.011207e+01  # K K+
      5       5    1   1.000000  1.265329e+01 -7.665047e+00 -8.468727e+00  # K K+
      6       6    1   1.000000  1.137338e+01 -2.661058e+00  2.685855e+01  # K K+
      7       7    1   1.000000  2.895861e+00 -3.772748e+00 -3.002301e+01  # K K+
      8       8    1   1.000000  1.300513e+01 -8.218090e+00  2.675360e-01  # K K+
      9       9    1   1.000000 -1.177318e+01 -9.207058e+00  2.597456e+01  # K K+
     10      10    1   1.000000 -1.511091e+01 -1.268544e+01  7.957098e+00  # K K+
     11      11    1   1.000000 -1.975799e+00  1.338970e-01  2.261787e+00  # K K+
     12      12    1   1.000000 -1.523680e+01  7.807610e+00  2.324529e+01  # K K+
     13      13    1   1.000000 -1.343619e+01 -1.353765e+01  9.603879e+00  # K K+
     14      14    1   1.000000  1.178594e+01  1.072412e+01 -4.529741e+00  # K K+
     15      15    1   1.000000 -5.456375e+00 -1.056689e+01 -7.009795e+00  # K K+
     16      16    1   1.000000  9.773262e+00  5.234650e+00  1.264028e+01  # K K+
     17      17    1   1.000000 -6.087702e+00 -1.504175e+01 -1.321896e+00  # K K+
     18      18    1   1.000000 -5.044495e+00 -7.082438e+00 -3.556138e+00  # K K+
     19      19    1   1.000000  6.693690e-01 -1.088283e+01  1.714430e+01  # K K+
     20      20    1   1.000000  1.294177e+01 -1.428105e+00 -2.320190e+01  # K K+
     21      21    1   1.000000 -1.230500e+01 -1.298639e+01 -2.404130e+01  # K K+
     22      22    1   1.000000 -6.617571e+00 -9.077398e+00 -1.953822e+00  # K K+
     23      23    1   1.000000  7.231320e+00 -1.504266e+01 -2.223172e+01  # K K+
     24      24    1   1.000000  1.024641e+00 -4.335969e+00 -1.073986e+01  # K K+
     25      25    1   1.000000 -9.811611e+00 -6.849128e+00  2.201462e+01  # K K+
     26      26    1   1.000000 -5.074678e+00 -8.647280e+00 -8.557594e+00  # K K+
     27      27    1   1.000000 -5.578995e+00 -1.511301e+01 -6.174787e+00  # K K+
     28      28    1   1.000000  1.489896e+00 -4.379158e+00  1.854591e+01  # K K+
     29      29    1   1.000000 -1.293412e+01 -1.167269e+01  2.527683e+01  # K K+
     30      30    1   1.000000  5.413590e+00  5.066753e+00 -1.587439e+01  # K K+
     31      31    1   1.000000 -7.534187e+00 -1.134236e+01 -8.153604e+00  # K K+
     32      32    1   1.000000 -1.289497e+01  3.507272e+00  6.197441e+00  # K K+
     33      33    1   1.000000  1.634876e+00  1.300786e+01  2.779953e+01  # K K+
     34      34    1   1.000000  1.728608e+00  6.408084e+00  6.771148e+00  # K K+
     35      35    1   1.000000  3.567529e+00  1.509330e+01  6.863692e+00  # K K+
     36      36    1   1.000000 -1.130553e+00  6.247600e-01  4.561580e+00  # K K+
     37      37    1   1.000000  1.332471e+01 -2.521442e+00  2.530354e+01  # K K+
     38      38    1   1.000000 -6.590037e+00 -1.329380e+00  1.324110e+00  # K K+
     39      39    1   1.000000 -1.083457e+01  2.226420e-01 -1.582899e+01  # K K+
     40      40    1   1.000000 -8.310007e+00 -5.380479e+00  5.612560e+00  # K K+
     41      41    1   1.000000  1.263956e+01  1.615964e+00  6.227113e+00  # K K+
     42      42    1   1.000000  1.287137e+01 -9.523264e+00  2.893139e+00  # K K+
     43      43    1   1.000000  2.078130e-01  5.040858e+00 -2.691325e+01  # K K+
     44      44    1   1.000000 -1.192760e+01  5.604817e+00 -1.547810e+01  # K K+
     45      45    1   1.000000  9.870994e+00  1.017549e+01 -1.075695e+01  # K K+
     46      46    2   0.423800 -7.994450e+00  6.331022e+00  5.426160e+00  # Hw SPCE
     47      46    3  -0.847600 -8.519029e+00  7.128549e+00  5.724097e+00  # Ow SPCE
     48      46    2   0.423800 -9.484431e+00  6.880934e+00  5.805870e+00  # Hw SPCE
     49      47    2   0.423800  1.075509e+01 -1.864556e+00  1.515743e+01  # Hw SPCE
     50      47    3  -0.847600  1.134781e+01 -1.068882e+00  1.528225e+01  # Ow SPCE
     51      47    2   0.423800  1.159835e+01 -9.879540e-01  1.624696e+01  # Hw SPCE
     52      48    2   0.423800  1.621484e+00 -1.501421e+01 -1.840844e+01  # Hw SPCE
     53      48    3  -0.847600  8.581990e-01 -1.501133e+01 -1.776238e+01  # Ow SPCE
     54      48    2   0.423800 -5.085000e-03 -1.504037e+01 -1.826627e+01  # Hw SPCE
     55      49    2   0.423800  1.272260e+01  6.273866e+00 -2.582801e+01  # Hw SPCE
     56      49    3  -0.847600  1.196223e+01  6.756445e+00 -2.539331e+01  # Ow SPCE
     57      49    2   0.423800  1.195971e+01  7.711159e+00 -2.569083e+01  # Hw SPCE
     58      50    2   0.423800  1.296960e+00  1.015824e+01  1.191620e+01  # Hw SPCE
     59      50    3  -0.847600  1.250517e+00  9.305233e+00  1.243604e+01  # Ow SPCE
     60      50    2   0.423800  1.299251e+00  9.507860e+00  1.341408e+01  # Hw SPCE
     61      51    2   0.423800 -9.361025e+00 -1.699440e+00  3.706091e+00  # Hw SPCE
     62      51    3  -0.847600 -9.211122e+00 -1.639297e+00  2.719222e+00  # Ow SPCE
     63      51    2   0.423800 -9.430793e+00 -2.517604e+00  2.294580e+00  # Hw SPCE
     64      52    2   0.423800 -8.678514e+00 -1.231972e+01  8.661055e+00  # Hw SPCE
     65      52    3  -0.847600 -8.247329e+00 -1.321228e+01  8.529098e+00  # Ow SPCE
     66      52    2   0.423800 -8.951727e+00 -1.392141e+01  8.498003e+00  # Hw SPCE
     67      53    2   0.423800 -1.514164e+01 -5.152859e+00  1.472634e+01  # Hw SPCE
     68      53    3  -0.847600 -1.502133e+01 -5.475424e+00  1.566521e+01  # Ow SPCE
     69      53    2   0.423800 -1.503785e+01 -4.695144e+00  1.629042e+01  # Hw SPCE
     70      54    2   0.423800  7.693489e+00  1.507601e+01  1.302172e+01  # Hw SPCE
     71      54    3  -0.847600  7.690780e+00  1.412268e+01  1.271980e+01  # Ow SPCE
     72      54    2   0.423800  7.040476e+00  1.360023e+01  1.327130e+01  # Hw SPCE
     73      55    2   0.423800  3.101837e+00  1.501234e+01 -3.005317e+01  # Hw SPCE
     74      55    3  -0.847600  3.928777e+00  1.500441e+01 -2.949093e+01  # Ow SPCE
     75      55    2   0.423800  4.683795e+00  1.460921e+01 -3.001415e+01  # Hw SPCE
     76      56    2   0.423800  4.828890e-01 -6.766744e+00 -1.094972e+01  # Hw SPCE
     77      56    3  -0.847600 -1.038530e-01 -6.966826e+00 -1.016505e+01  # Ow SPCE
     78      56    2   0.423800  2.347720e-01 -7.781856e+00 -9.694880e+00  # Hw SPCE
     79      57    2   0.423800 -1.035719e+01  3.663480e-01 -1.085627e+01  # Hw SPCE
     80      57    3  -0.847600 -1.133865e+01  4.734030e-01 -1.069725e+01  # Ow SPCE
     81      57    2   0.423800 -1.152250e+01  1.395482e+00 -1.035670e+01  # Hw SPCE
     82      58    2   0.423800  4.518311e+00  1.164797e+00 -2.038747e+01  # Hw SPCE
     83      58    3  -0.847600  5.336384e+00  7.926620e-01 -2.082596e+01  # Ow SPCE
     84      58    2   0.423800  5.124203e+00 -9.945700e-02 -2.122483e+01  # Hw SPCE
     85      59    2   0.423800  9.804562e+00  2.377529e+00 -2.202114e+01  # Hw SPCE
     86      59    3  -0.847600  1.022128e+01  3.218080e+00 -2.236729e+01  # Ow SPCE
     87      59    2   0.423800  9.598691e+00  3.985774e+00 -2.221554e+01  # Hw SPCE
     88      60    2   0.423800  6.734909e+00 -2.581449e+00 -1.029518e+01  # Hw SPCE
     89      60    3  -0.847600  7.109483e+00 -3.088792e+00 -1.107126e+01  # Ow SPCE
     90      60    2   0.423800  7.489505e+00 -2.446707e+00 -1.173707e+01  # Hw SPCE
     91      61    2   0.423800  1.485746e+01  1.903170e+00 -7.108215e+00  # Hw SPCE
     92      61    3  -0.847600  1.395043e+01  1.488855e+00 -7.033125e+00  # Ow SPCE
     93      61    2   0.423800  1.339338e+01  1.761703e+00 -7.817507e+00  # Hw SPCE
     94      62    2   0.423800 -3.290724e+00  2.938262e+00 -3.589844e+00  # Hw SPCE
     95      62    3  -0.847600 -2.808527e+00  3.457985e+00 -4.295092e+00  # Ow SPCE
     96      62    2   0.423800 -2.215852e+00  4.137092e+00 -3.862023e+00  # Hw SPCE
     97      63    2   0.423800  3.944466e+00  7.002329e+00 -5.861872e+00  # Hw SPCE
     98      63    3  -0.847600  3.269284e+00  6.294871e+00 -5.652991e+00  # Ow SPCE
     99      63    2   0.423800  3.739556e+00  5.443133e+00 -5.421934e+00  # Hw SPCE
    100      64    2   0.423800  6.660443e+00  4.385571e+00  2.049029e+01  # Hw SPCE
    101      64    3  -0.847600  7.312251e+00  3.704464e+00  2.015677e+01  # Ow SPCE
    102      64    2   0.423800  7.245994e+00  2.877952e+00  2.071577e+01  # Hw SPCE
    103      65    2   0.423800 -1.649378e+00 -1.164259e+01  1.349752e+00  # Hw SPCE
    104      65    3  -0.847600 -2.246276e+00 -1.085333e+01  1.493923e+00  # Ow SPCE
    105      65    2   0.423800 -3.167001e+00 -1.116920e+01  1.723041e+00  # Hw SPCE
    106      66    2   0.423800 -5.381713e+00 -1.504230e+01 -8.662652e+00  # Hw SPCE
    107      66    3  -0.847600 -5.589916e+00 -1.408671e+01 -8.454091e+00  # Ow SPCE
    108      66    2   0.423800 -4.776115e+00 -1.364233e+01 -8.079580e+00  # Hw SPCE
    109      67    2   0.423800  1.301832e+01 -8.956537e+00 -2.453875e+01  # Hw SPCE
    110      67    3  -0.847600  1.358377e+01 -8.403840e+00 -2.515095e+01  # Ow SPCE
    111      67    2   0.423800  1.300075e+01 -7.952825e+00 -2.582673e+01  # Hw SPCE
    112      68    2   0.423800  1.451696e+01  8.819830e+00  1.571135e+01  # Hw SPCE
    113      68    3  -0.847600  1.388418e+01  8.890118e+00  1.494022e+01  # Ow SPCE
    114      68    2   0.423800  1.302632e+01  9.300641e+00  1.524936e+01  # Hw SPCE
    115      69    2   0.423800  8.565874e+00 -9.584735e+00  1.210018e+01  # Hw SPCE
    116      69    3  -0.847600  8.756082e+00 -8.822628e+00  1.148130e+01  # Ow SPCE
    117      69    2   0.423800  7.920069e+00 -8.292948e+00  1.133804e+01  # Hw SPCE
    118      70    2   0.423800 -1.020163e+01 -6.749298e+00 -7.389385e+00  # Hw SPCE
    119      70    3  -0.847600 -9.293908e+00 -6.934084e+00 -7.766070e+00  # Ow SPCE
    120      70    2   0.423800 -9.382837e+00 -7.490111e+00 -8.592463e+00  # Hw SPCE
    121      71    2   0.423800  9.664280e-01  2.662740e+00  4.058983e+00  # Hw SPCE
    122      71    3  -0.847600  1.663078e+00  2.013173e+00  4.363516e+00  # Ow SPCE
    123      71    2   0.423800  1.238627e+00  1.315277e+00  4.940389e+00  # Hw SPCE
    124      72    2   0.423800 -9.456495e+00 -1.437103e+01 -1.261897e+01  # Hw SPCE
    125      72    3  -0.847600 -9.819557e+00 -1.348036e+01 -1.289263e+01  # Ow SPCE
    126      72    2   0.423800 -9.094760e+00 -1.294327e+01 -1.332414e+01  # Hw SPCE
    127      73    2   0.423800  1.133429e+00  1.340741e+01 -1.498186e+01  # Hw SPCE
    128      73    3  -0.847600  1.220451e+00  1.251754e+01 -1.453403e+01  # Ow SPCE
    129      73    2   0.423800  1.531569e+00  1.264720e+01 -1.359255e+01  # Hw SPCE
    130      74    2   0.423800 -6.914062e+00 -1.274599e+00 -2.525013e+01  # Hw SPCE
    131      74    3  -0.847600 -6.681435e+00 -2.246933e+00 -2.522888e+01  # Ow SPCE
    132      74    2   0.423800 -7.520824e+00 -2.790441e+00 -2.522393e+01  # Hw SPCE
    133      75    2   0.423800  1.501103e+01 -1.309110e+01 -2.226166e+01  # Hw SPCE
    134      75    3  -0.847600  1.514919e+01 -1.264802e+01 -2.314743e+01  # Ow SPCE
    135      75    2   0.423800  1.509949e+01 -1.333312e+01 -2.387418e+01  # Hw SPCE
    136      76    2   0.423800 -6.735908e+00  8.725136e+00  8.342104e+00  # Hw SPCE
    137      76    3  -0.847600 -6.585169e+00  9.654438e+00  8.679260e+00  # Ow SPCE
    138      76    2   0.423800 -7.036707e+00  9.765138e+00  9.564618e+00  # Hw SPCE
    139      77    2   0.423800 -3.267613e+00 -1.507141e+01 -2.762298e+01  # Hw SPCE
    140      77    3  -0.847600 -4.257363e+00 -1.500516e+01 -2.749647e+01  # Ow SPCE
    141      77    2   0.423800 -4.470036e+00 -1.501710e+01 -2.651941e+01  # Hw SPCE
    142      78    2   0.423800  9.895020e-01  9.366916e+00  3.007444e+01  # Hw SPCE
    143      78    3  -0.847600  1.890285e+00  8.932785e+00  3.006349e+01  # Ow SPCE
    144      78    2   0.423800  2.599631e+00  9.637354e+00  3.004323e+01  # Hw SPCE
    145      79    2   0.423800  1.140415e+01  9.875664e+00  2.055589e+01  # Hw SPCE
    146      79    3  -0.847600  1.229597e+01  9.872750e+00  2.010352e+01  # Ow SPCE
    147      79    2   0.423800  1.300260e+01  9.612353e+00  2.076145e+01  # Hw SPCE
    148      80    2   0.423800 -6.997400e+00 -6.553223e+00 -2.090417e+00  # Hw SPCE
    149      80    3  -0.847600 -7.612783e+00 -6.939536e+00 -2.777487e+00  # Ow SPCE
    150      80    2   0.423800 -8.391264e+00 -6.326076e+00 -2.910278e+00  # Hw SPCE
    151      81    2   0.423800 -1.098077e+01 -1.569745e+00  2.262441e+01  # Hw SPCE
    152      81    3  -0.847600 -1.004075e+01 -1.901061e+00  2.254314e+01  # Ow SPCE
    153      81    2   0.423800 -9.428633e+00 -1.128733e+00  2.237338e+01  # Hw SPCE
    154      82    2   0.423800 -9.933812e+00 -1.025032e+01 -3.116375e+00  # Hw SPCE
    155      82    3  -0.847600 -9.145636e+00 -9.928534e+00 -3.641003e+00  # Ow SPCE
    156      82    2   0.423800 -8.311913e+00 -1.034648e+01 -3.280140e+00  # Hw SPCE
    157      83    2   0.423800 -5.497010e+00 -3.506012e+00  1.882395e+00  # Hw SPCE
    158      83    3  -0.847600 -5.195627e+00 -3.520679e+00  9.290040e-01  # Ow SPCE
    159      83    2   0.423800 -5.368786e+00 -4.424877e+00  5.385680e-01  # Hw SPCE
    160      84    2   0.423800  1.187050e+01 -1.666756e+00  2.909727e+01  # Hw SPCE
    161      84    3  -0.847600  1.164468e+01 -1.909492e+00  3.004071e+01  # Ow SPCE
    162      84    2   0.423800  1.146847e+01 -2.892115e+00  3.009902e+01  # Hw SPCE
    163      85    2   0.423800  8.397041e+00  3.250895e+00 -4.369375e+00  # Hw SPCE
    164      85    3  -0.847600  8.128392e+00  3.843722e+00 -3.610176e+00  # Ow SPCE
    165      85    2   0.423800  7.811283e+00  4.721653e+00 -3.968894e+00  # Hw SPCE
    166      86    2   0.423800 -5.038390e+00  4.011513e+00 -8.240899e+00  # Hw SPCE
    167      86    3  -0.847600 -5.837223e+00  3.612250e+00 -7.790949e+00  # Ow SPCE
    168      86    2   0.423800 -6.201966e+00  4.260466e+00 -7.122534e+00  # Hw SPCE
    169      87    2   0.423800 -4.733663e+00 -4.714920e-01 -2.128367e+00  # Hw SPCE
    170      87    3  -0.847600 -4.810368e+00 -1.272317e+00 -1.534402e+00  # Ow SPCE
    171      87    2   0.423800 -5.637586e+00 -1.196378e+00 -9.776770e-01  # Hw SPCE
    172      88    2   0.423800 -7.497953e+00 -1.919250e+00  2.374776e+01  # Hw SPCE
    173      88    3  -0.847600 -6.551956e+00 -1.741960e+00  2.347636e+01  # Ow SPCE
    174      88    2   0.423800 -6.471037e+00 -8.022270e-01  2.314416e+01  # Hw SPCE
    175      89    2   0.423800  4.501138e+00 -5.931241e+00  2.779399e+01  # Hw SPCE
    176      89    3  -0.847600  4.793296e+00 -6.859641e+00  2.756439e+01  # Ow SPCE
    177      89    2   0.423800  4.613644e+00 -7.035843e+00  2.659657e+01  # Hw SPCE
    178      90    2   0.423800 -1.153295e+01 -8.992429e+00  2.136489e+01  # Hw SPCE
    179      90    3  -0.847600 -1.209711e+01 -9.346688e+00  2.061908e+01  # Ow SPCE
    180      90    2   0.423800 -1.295130e+01 -8.828834e+00  2.057233e+01  # Hw SPCE
    181      91    2   0.423800  4.412375e+00 -3.919100e+00 -2.685475e+01  # Hw SPCE
    182      91    3  -0.847600  4.414309e+00 -4.342739e+00 -2.594892e+01  # Ow SPCE
    183      91    2   0.423800  3.572714e+00 -4.100821e+00 -2.546602e+01  # Hw SPCE
    184      92    2   0.423800 -7.146909e+00 -1.266226e+01 -1.848327e+01  # Hw SPCE
    185      92    3  -0.847600 -7.455330e+00 -1.231966e+01 -1.937068e+01  # Ow SPCE
    186      92    2   0.423800 -8.325202e+00 -1.183930e+01 -1.925851e+01  # Hw SPCE
    187      93    2   0.423800  9.059214e+00 -6.313045e+00 -2.975824e+00  # Hw SPCE
    188      93    3  -0.847600  9.712771e+00 -7.030363e+00 -2.734331e+00  # Ow SPCE
    189      93    2   0.423800  9.280177e+00 -7.925478e+00 -2.842176e+00  # Hw SPCE
    190      94    2   0.423800 -1.295658e+00 -9.587821e+00 -2.448395e+00  # Hw SPCE
    191      94    3  -0.847600 -1.862571e+00 -9.591762e+00 -1.624627e+00  # Ow SPCE
    192      94    2   0.423800 -1.944780e+00 -1.052728e+01 -1.281060e+00  # Hw SPCE
    193      95    2   0.423800 -9.798803e+00  7.709072e+00  2.808988e+01  # Hw SPCE
    194      95    3  -0.847600 -9.626448e+00  8.682479e+00  2.793897e+01  # Ow SPCE
    195      95    2   0.423800 -8.673738e+00  8.813718e+00  2.766490e+01  # Hw SPCE
    196      96    2   0.423800  9.818831e+00 -4.679973e+00 -2.766139e+01  # Hw SPCE
    197      96    3  -0.847600  9.807675e+00 -4.370804e+00 -2.671045e+01  # Ow SPCE
    198      96    2   0.423800  8.864333e+00 -4.197956e+00 -2.642720e+01  # Hw SPCE
    199      97    2   0.423800 -1.483577e+00  8.609854e+00 -5.516877e+00  # Hw SPCE
    200      97    3  -0.847600 -1.932986e+00  9.272574e+00 -4.917849e+00  # Ow SPCE
    201      97    2   0.423800 -1.469641e+00  1.015574e+01 -4.990876e+00  # Hw SPCE
    202      98    2   0.423800  1.253540e+01  1.504596e+01 -1.517028e+01  # Hw SPCE
    203      98    3  -0.847600  1.268591e+01  1.504789e+01 -1.418167e+01  # Ow SPCE
    204      98    2   0.423800  1.180405e+01  1.503936e+01 -1.371024e+01  # Hw SPCE
    205      99    2   0.423800  5.551968e+00 -8.071741e+00 -3.005998e+01  # Hw SPCE
    206      99    3  -0.847600  6.270261e+00 -7.376023e+00 -3.006555e+01  # Ow SPCE
    207      99    2   0.423800  7.162116e+00 -7.818478e+00 -3.015951e+01  # Hw SPCE
    208     100    2   0.423800 -8.693200e-02 -8.913484e+00  9.687186e+00  # Hw SPCE
    209     100    3  -0.847600 -4.456670e-01 -9.520777e+00  8.978311e+00  # Ow SPCE
    210     100    2   0.423800 -1.548200e-02 -9.301546e+00  8.102595e+00  # Hw SPCE
    211     101    2   0.423800 -8.123502e+00 -1.281958e+01  1.638654e+01  # Hw SPCE
    212     101    3  -0.847600 -9.002906e+00 -1.325820e+01  1.620144e+01  # Ow SPCE
    213     101    2   0.423800 -9.227435e+00 -1.388339e+01  1.694891e+01  # Hw SPCE
    214     102    2   0.423800  1.261688e+01  4.108001e+00 -8.177337e+00  # Hw SPCE
    215     102    3  -0.847600  1.294487e+01  4.613764e+00 -7.379444e+00  # Ow SPCE
    216     102    2   0.423800  1.364180e+01  4.074699e+00 -6.906485e+00  # Hw SPCE
    217     103    2   0.423800  9.849920e+00  5.664326e+00 -3.005868e+01  # Hw SPCE
    218     103    3  -0.847600  1.071850e+01  6.159877e+00 -3.005912e+01  # Ow SPCE
    219     103    2   0.423800  1.147522e+01  5.506142e+00 -3.005941e+01  # Hw SPCE
    220     104    2   0.423800 -1.455673e+01 -1.030887e+01  7.436993e+00  # Hw SPCE
    221     104    3  -0.847600 -1.508363e+01 -9.896478e+00  6.693818e+00  # Ow SPCE
    222     104    2   0.423800 -1.457750e+01 -9.987174e+00  5.836147e+00  # Hw SPCE
    223     105    2   0.423800  2.866872e+00 -5.725901e+00 -2.762423e+01  # Hw SPCE
    224     105    3  -0.847600  2.686254e+00 -6.108014e+00 -2.671794e+01  # Ow SPCE
    225     105    2   0.423800  1.841235e+00 -5.716645e+00 -2.635356e+01  # Hw SPCE
    226     106    2   0.423800  6.434953e+00  6.682159e+00  2.195603e+01  # Hw SPCE
    227     106    3  -0.847600  5.583218e+00  6.390418e+00  2.152079e+01  # Ow SPCE
    228     106    2   0.423800  5.537564e+00  6.763617e+00  2.059416e+01  # Hw SPCE
    229     107    2   0.423800  4.193507e+00 -7.574370e-01 -2.392715e+00  # Hw SPCE
    230     107    3  -0.847600  4.556474e+00 -1.390233e+00 -3.076693e+00  # Ow SPCE
    231     107    2   0.423800  3.841646e+00 -2.035409e+00 -3.346449e+00  # Hw SPCE
    232     108    2   0.423800 -8.978185e+00  8.159811e+00 -6.169325e+00  # Hw SPCE
    233     108    3  -0.847600 -8.979429e+00  8.474390e+00 -5.220095e+00  # Ow SPCE
    234     108    2   0.423800 -8.397862e+00  9.283567e+00 -5.136358e+00  # Hw SPCE
    235     109    2   0.423800  8.315190e+00 -7.007218e+00 -1.545712e+01  # Hw SPCE
    236     109    3  -0.847600  8.126976e+00 -7.794743e+00 -1.604396e+01  # Ow SPCE
    237     109    2   0.423800  7.375054e+00 -7.575095e+00 -1.666555e+01  # Hw SPCE
    238     110    2   0.423800  1.509639e+01  1.471133e+00 -3.545236e+00  # Hw SPCE
    239     110    3  -0.847600  1.491746e+01  1.542216e+00 -4.526526e+00  # Ow SPCE
    240     110    2   0.423800  1.505347e+01  6.492820e-01 -4.955677e+00  # Hw SPCE
    241     111    2   0.423800  1.208101e+00 -1.506856e+01 -2.087120e+01  # Hw SPCE
    242     111    3  -0.847600  5.506430e-01 -1.436407e+01 -2.060391e+01  # Ow SPCE
    243     111    2   0.423800  1.041115e+00 -1.353456e+01 -2.033681e+01  # Hw SPCE
    244     112    2   0.423800 -1.551296e+00  1.473691e+01  2.996539e+01  # Hw SPCE
    245     112    3  -0.847600 -1.247189e+00  1.431955e+01  2.910904e+01  # Ow SPCE
    246     112    2   0.423800 -1.004701e+00  1.503717e+01  2.845618e+01  # Hw SPCE
    247     113    2   0.423800  4.215391e+00  3.926870e-01 -2.571811e+01  # Hw SPCE
    248     113    3  -0.847600  3.890809e+00  1.332877e+00 -2.561472e+01  # Ow SPCE
    249     113    2   0.423800  3.022879e+00  1.333139e+00 -2.511804e+01  # Hw SPCE
    250     114    2   0.423800 -1.494059e+01  8.673280e+00 -1.689289e+01  # Hw SPCE
    251     114    3  -0.847600 -1.399096e+01  8.421989e+00 -1.670564e+01  # Ow SPCE
    252     114    2   0.423800 -1.344191e+01  9.250793e+00 -1.659781e+01  # Hw SPCE
    253     115    2   0.423800  1.417722e+01  1.119959e+01  1.639577e+01  # Hw SPCE
    254     115    3  -0.847600  1.505959e+01  1.161741e+01  1.617929e+01  # Ow SPCE
    255     115    2   0.423800  1.502452e+01  1.259550e+01  1.638449e+01  # Hw SPCE
    256     116    2   0.423800 -1.516426e+01 -7.032570e-01 -1.276078e+01  # Hw SPCE
    257     116    3  -0.847600 -1.468406e+01 -3.966590e-01 -1.358260e+01  # Ow SPCE
    258     116    2   0.423800 -1.516018e+01  3.916750e-01 -1.397227e+01  # Hw SPCE
    259     117    2   0.423800 -6.864451e+00 -9.040708e+00  2.620991e+01  # Hw SPCE
    260     117    3  -0.847600 -6.744389e+00 -8.612228e+00  2.531438e+01  # Ow SPCE
    261     117    2   0.423800 -6.651722e+00 -9.321292e+00  2.461535e+01  # Hw SPCE
    262     118    2   0.423800  3.647309e+00 -1.170165e+01 -2.457039e+01  # Hw SPCE
    263     118    3  -0.847600  3.583835e+00 -1.260964e+01 -2.498454e+01  # Ow SPCE
    264     118    2   0.423800  4.315724e+00 -1.272129e+01 -2.565675e+01  # Hw SPCE
    265     119    2   0.423800 -1.441967e+01  7.237806e+00 -2.047826e+00  # Hw SPCE
    266     119    3  -0.847600 -1.505329e+01  6.831576e+00 -1.389419e+00  # Ow SPCE
    267     119    2   0.423800 -1.517084e+01  7.451641e+00 -6.137240e-01  # Hw SPCE
    268     120    2   0.423800  1.270741e+01 -1.505329e+01  2.688193e+01  # Hw SPCE
    269     120    3  -0.847600  1.320960e+01 -1.503018e+01  2.774638e+01  # Ow SPCE
    270     120    2   0.423800  1.417872e+01 -1.486369e+01  2.756452e+01  # Hw SPCE
    271     121    2   0.423800  1.159081e+01  1.408038e+01 -2.206955e+01  # Hw SPCE
    272     121    3  -0.847600  1.179722e+01  1.505822e+01 -2.203435e+01  # Ow SPCE
    273     121    2   0.423800  1.278843e+01  1.518917e+01 -2.201546e+01  # Hw SPCE
    274     122    2   0.423800  6.826080e+00  1.201690e+01  6.345227e+00  # Hw SPCE
    275     122    3  -0.847600  5.893511e+00  1.169482e+01  6.182203e+00  # Ow SPCE
    276     122    2   0.423800  5.918185e+00  1.088566e+01  5.595134e+00  # Hw SPCE
    277     123    2   0.423800  3.529035e+00  9.191267e+00 -1.724741e+01  # Hw SPCE
    278     123    3  -0.847600  3.249307e+00  9.705225e+00 -1.805834e+01  # Ow SPCE
    279     123    2   0.423800  2.817200e+00  9.085246e+00 -1.871325e+01  # Hw SPCE
    280     124    2   0.423800 -3.657948e+00 -7.297357e+00  2.757120e+01  # Hw SPCE
    281     124    3  -0.847600 -3.015570e+00 -6.725815e+00  2.706062e+01  # Ow SPCE
    282     124    2   0.423800 -2.923575e+00 -5.839896e+00  2.751524e+01  # Hw SPCE
    283     125    2   0.423800  5.623451e+00  9.204550e+00 -1.867866e+01  # Hw SPCE
    284     125    3  -0.847600  6.313824e+00  9.812809e+00 -1.907033e+01  # Ow SPCE
    285     125    2   0.423800  6.257404e+00  9.782233e+00 -2.006827e+01  # Hw SPCE
    286     126    2   0.423800 -1.840520e+00  4.859158e+00  1.908472e+01  # Hw SPCE
    287     126    3  -0.847600 -2.825755e+00  4.980850e+00  1.896430e+01  # Ow SPCE
    288     126    2   0.423800 -3.084083e+00  4.710549e+00  1.803683e+01  # Hw SPCE
    289     127    2   0.423800  1.261173e+01  1.183876e+01  2.574379e+01  # Hw SPCE
    290     127    3  -0.847600  1.287172e+01  1.257720e+01  2.512160e+01  # Ow SPCE
    291     127    2   0.423800  1.313523e+01  1.219099e+01  2.423763e+01  # Hw SPCE
    292     128    2   0.423800  5.671326e+00  2.729995e+00  5.760565e+00  # Hw SPCE
    293     128    3  -0.847600  6.298352e+00  2.440324e+00  6.483703e+00  # Ow SPCE
    294     128    2   0.423800  5.786316e+00  1.961414e+00  7.196770e+00  # Hw SPCE
    295     129    2   0.423800  4.783490e+00  9.472717e+00  2.081902e+01  # Hw SPCE
    296     129    3  -0.847600  3.830533e+00  9.775349e+00  2.080209e+01  # Ow SPCE
    297     129    2   0.423800  3.653949e+00  1.036476e+01  2.159039e+01  # Hw SPCE
    298     130    2   0.423800  8.718623e+00 -1.146897e+01 -1.328298e+01  # Hw SPCE
    299     130    3  -0.847600  9.376118e+00 -1.212935e+01 -1.364574e+01  # Ow SPCE
    300     130    2   0.423800  8.938009e+00 -1.302438e+01 -1.372929e+01  # Hw SPCE
    301     131    2   0.423800  1.454639e+01 -5.665119e+00 -5.524978e+00  # Hw SPCE
    302     131    3  -0.847600  1.441568e+01 -5.191037e+00 -6.395702e+00  # Ow SPCE
    303     131    2   0.423800  1.507776e+01 -4.445501e+00 -6.471970e+00  # Hw SPCE
    304     132    2   0.423800 -8.981474e+00  7.276000e-01 -2.131124e+01  # Hw SPCE
    305     132    3  -0.847600 -9.312422e+00 -2.140830e-01 -2.125036e+01  # Ow SPCE
    306     132    2   0.423800 -9.766710e+00 -4.636690e-01 -2.210554e+01  # Hw SPCE
    307     133    2   0.423800  4.381009e+00  1.380602e+01  2.891382e+01  # Hw SPCE
    308     133    3  -0.847600  4.691861e+00  1.475187e+01  2.882029e+01  # Ow SPCE
    309     133    2   0.423800  4.350406e+00  1.513145e+01  2.796045e+01  # Hw SPCE
    310     134    2   0.423800  5.109930e+00  1.013173e+01  8.769417e+00  # Hw SPCE
    311     134    3  -0.847600  5.669859e+00  1.093122e+01  8.551939e+00  # Ow SPCE
    312     134    2   0.423800  6.620456e+00  1.064788e+01  8.425130e+00  # Hw SPCE
    313     135    2   0.423800 -2.600774e+00  5.165641e+00 -6.106746e+00  # Hw SPCE
    314     135    3  -0.847600 -3.191903e+00  5.021253e+00 -6.900294e+00  # Ow SPCE
    315     135    2   0.423800 -3.809002e+00  5.801460e+00 -7.002594e+00  # Hw SPCE
    316     136    2   0.423800  7.696014e+00 -5.120286e+00  2.843564e+01  # Hw SPCE
    317     136    3  -0.847600  6.843876e+00 -5.071932e+00  2.791456e+01  # Ow SPCE
    318     136    2   0.423800  6.663427e+00 -4.122369e+00  2.765811e+01  # Hw SPCE
    319     137    2   0.423800  4.323230e-01 -9.803306e+00 -6.587050e-01  # Hw SPCE
    320     137    3  -0.847600  7.335350e-01 -8.974284e+00 -1.129868e+00  # Ow SPCE
    321     137    2   0.423800  7.931200e-01 -8.221377e+00 -4.744440e-01  # Hw SPCE
    322     138    2   0.423800 -3.494275e+00 -1.693428e+00  8.035370e-01  # Hw SPCE
    323     138    3  -0.847600 -4.134202e+00 -9.647140e-01  1.047402e+00  # Ow SPCE
    324     138    2   0.423800 -4.229940e+00 -9.242270e-01  2.041985e+00  # Hw SPCE
    325     139    2   0.423800 -2.243863e+00 -1.506477e+01 -1.135710e+01  # Hw SPCE
    326     139    3  -0.847600 -1.349017e+00 -1.508944e+01 -1.091141e+01  # Ow SPCE
    327     139    2   0.423800 -6.314860e-01 -1.513276e+01 -1.160658e+01  # Hw SPCE
    328     140    2   0.423800 -9.504386e+00 -2.208527e+00  1.728603e+01  # Hw SPCE
    329     140    3  -0.847600 -1.016494e+01 -1.505790e+00  1.755029e+01  # Ow SPCE
    330     140    2   0.423800 -9.679316e+00 -6.650430e-01  1.778970e+01  # Hw SPCE
    331     141    2   0.423800 -9.676069e+00  6.844030e-01 -2.432009e+01  # Hw SPCE
    332     141    3  -0.847600 -9.099664e+00  1.053385e+00 -2.504921e+01  # Ow SPCE
    333     141    2   0.423800 -9.014593e+00  3.774010e-01 -2.578120e+01  # Hw SPCE
    334     142    2   0.423800  7.635335e+00  1.169774e+00 -2.173643e+01  # Hw SPCE
    335     142    3  -0.847600  7.365982e+00  3.561420e-01 -2.225165e+01  # Ow SPCE
    336     142    2   0.423800  7.865877e+00  3.291610e-01 -2.311731e+01  # Hw SPCE
    337     143    2   0.423800  3.486359e+00 -4.732245e+00  1.207672e+01  # Hw SPCE
    338     143    3  -0.847600  4.397381e+00 -4.959829e+00  1.242059e+01  # Ow SPCE
    339     143    2   0.423800  4.887748e+00 -4.118407e+00  1.264763e+01  # Hw SPCE
    340     144    2   0.423800 -7.522505e+00 -5.995974e+00 -1.232625e+01  # Hw SPCE
    341     144    3  -0.847600 -8.342082e+00 -5.465500e+00 -1.210970e+01  # Ow SPCE
    342     144    2   0.423800 -8.078451e+00 -4.617679e+00 -1.164960e+01  # Hw SPCE
    343     145    2   0.423800  1.257920e+01  1.472228e+01  3.001696e+01  # Hw SPCE
    344     145    3  -0.847600  1.162414e+01  1.501768e+01  3.004150e+01  # Ow SPCE
    345     145    2   0.423800  1.126536e+01  1.506349e+01  2.910920e+01  # Hw SPCE
    346     146    2   0.423800  9.531943e+00 -4.002318e+00  1.237975e+01  # Hw SPCE
    347     146    3  -0.847600  9.840505e+00 -3.480114e+00  1.317480e+01  # Ow SPCE
    348     146    2   0.423800  1.077123e+01 -3.756475e+00  1.341434e+01  # Hw SPCE
    349     147    2   0.423800 -1.168284e+00 -6.642839e+00 -2.554324e+01  # Hw SPCE