ITEM: TIMESTEP
5000000
ITEM: NUMBER OF ATOMS
896
ITEM: BOX BOUNDS pp pp ff
-1.7153631884999999e+01 1.8003017117999999e+01
-1.7855467918999999e+01 1.7553981017000002e+01
-3.4618715923000003e+01 3.4618715923000003e+01
ITEM: ATOMS q 
0 
0 
0 
0 
0 
0 
0 
0 
0 
0 
0 
0 
0 
0 
0 
0 
0 
0 
0 
0 
0 
0 
0 
0 
0 
0 
0 
0 
0 
0 
0 
0 
0 
0 
0 
0 
0 
0 
0 
0 
0 
0 
0 
0 
0 
0 
0 
0 
0 
0 
0 
0 
0 
0 
0 
0 
0 
0 
0 
0 
0 
0 
0 
0 
0 
0 
0 
0 
0 
0 
0 
0 
0 
0 
0 
0 
0 
0 
0 
0 
0 
0 
0 
0 
0 
0 
0 
0 
0 
0 
0 
0 
0 
0 
0 
0 
0 
0 
0 
0 
0 
0 
0 
0 
0 
0 
0 
0 
0 
0 
0 
0 
0 
0 
0 
0 
0 
0 
0 
0 
0 
0 
0 
0 
0 
0 
0 
0 
0 
0 
0 
0 
0 
0 
0 
0 
0 
0 
0 
0 
0 
0 
0 
0 
0 
0 
0 
0 
0 
0 
0 
0 
0 
0 
0 
0 
0 
0 
0 
0 
0 
0 
0 
0 
0 
0 
0 
0 
0 
0 
0 
0 
0 
0 
0 
0 
0 
0 
0 
0 
0 
0 
0 
0 
0 
0 
0 
0 
0 
0 
0 
0 
0 
0 
0 
0 
0 
0 
0 
0 
0 
0 
0 
0 
0 
0 
0 
0 
0 
0 
0 
0 
0 
0 
0 
0 
0 
0 
0 
0 
0 
0 
0 
0 
0 
0 
0 
0 
0 
0 
0 
0 
0 
0 
0 
0 
0 
0 
0 
0 
0 
0 
0 
0 
0 
0 
0 
0 
0 
0 
0 
0 
0 
0 
0 
0 
0 
0 
0 
0 
0 
0 
0 
0 
0 
0 
0 
0 
0 
0 
0 
0 
0 
0 
0 
0 
0 
0 
0 
0 
0 
0 
0 
0 
0 
0 
0 
0 
0 
0 
0 
0 
0 
0 
0 
0 
0 
0 
0 
0 
0 
0 
0 
0 
0 
0 
0 
0 
0 
0 
0 
0 
0 
0 
0 
0 
0 
0 
0 
0 
0 
0 
0 
0 
0 
0 
0 
0 
0 
0 
0 
0 
0 
0 
0 
0 
0 
0 
0 
0 
0 
0 
0 
0 
0 
0 
0 
0 
0 
0 
0 
0 
0 
0 
0 
0 
0 
0 
0 
0 
0 
0 
0 
0 
0 
0 
0 
0 
0 
0 
0 
0 
0 
0 
0 
0 
0 
0 
0 
0 
0 
0 
0 
0 
0 
0 
0 
0 
0 
0 
0 
0 
0 
0 
0 
0 
0 
0 
0 
0 
0 
0 
0 
0 
0 
0 
0 
0 
0 
0 
0 
0 
0 
0 
0 
0 
0 
0 
0 
0 
0 
0 
0 
0 
0 
0 
0 
0 
0 
0 
0 
0 
0 
0 
0 
0 
0 
0 
0 
0 
0 
0 
0 
0 
0 
0 
0 
0 
0 
0 
0 
0 
0 
0 
0 
0 
0 
0 
0 
0 
0 
0 
0 
0 
0 
0 
0 
0 
0 
0 
0 
0 
0 
0 
0 
0 
0 
0 
0 
0 
0 
0 
0 
0 
0 
0 
0 
0 
0 
0 
0 
0 
0 
0 
0 
0 
0 
0 
0 
0 
0 
0 
0 
0 
0 
0 
0 
0 
0 
0 
0 
0 
0 
0 
0 
0 
0 
0 
0 
0 
0 
0 
0 
0 
0 
0 
0 
0 
0 
0 
0 
0 
0 
0 
0 
0 
0 
0 
0 
0 
0 
0 
0 
0 
0 
0 
0 
0 
0 
0 
0 
0 
0 
0 
0 
0 
0 
0 
0 
0 
0 
0 
0 
0 
0 
0 
0 
0 
0 
0 
0 
0 
0 
0 
0 
0 
0 
0 
0 
0 
0 
0 
0 
0 
0 
0 
0 
0 
0 
0 
0 
0 
0 
0 
0 
0 
0 
0 
0 
0 
0 
0 
0 
0 
0 
0 
0 
0 
0 
0 
0 
0 
0 
0 
0 
0 
0 
0 
0 
0 
0 
0 
0 
0 
0 
0 
0 
0 
0 
0 
0 
0 
0 
0 
0 
0 
0 
0 
0 
0 
0 
0 
0 
0 
0 
0 
0 
0 
0 
0 
0 
0 
0 
0 
0 
0 
0 
0 
0 
0 
0 
0 
0 
0 
0 
0 
0 
0 
0 
0 
0 
0 
0 
0 
0 
0 
0 
0 
0 
0 
0 
0 
0 
0 
0 
0 
0 
0 
0 
0 
0 
0 
0 
0 
0 
0 
0 
0 
0 
0 
0 
0 
0 
0 
0 
0 
0 
0 
0 
0 
0 
0 
0 
0 
0 
0 
0 
0 
0 
0 
0 
0 
0 
0 
0 
0 
0 
0 
0 
0 
0 
0 
0 
0 
0 
0 
0 
0 
0 
0 
0 
0 
0 
0 
0 
0 
0 
0 
0 
0 
0 
0 
0 
0 
0 
0 
0 
0 
0 
0 
0 
0 
0 
0 
0 
0 
0 
0 
0 
0 
0 
0 
0 
0 
0 
0 
0 
0 
0 
0 
0 
0 
0 
0 
0 
0 
0 
0 
0 
0 
0 
0 
0 
0 
0 
0 
0 
0 
0 
0 
0 
0 
0 
0 
0 
0 
0 
0 
0 
0 
0 
0 
0 
0 
0 
0 
0 
0 
0 
0 
0 
0 
0 
0 
0 
0 
0 
0 
0 
0 
0 
0 
0 
0 
0 
0 
0 
0 
0 
0 
0 
0 
0 
0 
0 
0 
0 
0 
0 
0 
0 
0 
0 
0 
0 
0 
0 
0 
0 
0 
0 
0 
0 
0 
0 
0 
0 
0 
0 
0 
0 
0 
0 
0 
0 
0 
0 
0 
0 
0 
0 
0 
0 
0 
0 
0 
0 
0 
0 
0 
0 
0 
0 
0 
0 
0 
ITEM: TIMESTEP
6000000
ITEM: NUMBER OF ATOMS
896
ITEM: BOX BOUNDS pp pp ff
-1.7153631884999999e+01 1.8003017117999999e+01
-1.7855467918999999e+01 1.7553981017000002e+01
-3.4618715923000003e+01 3.4618715923000003e+01
ITEM: ATOMS q 
-1.82933e-05 
-1.97054e-05 
1.48385e-05 
2.82683e-05 
-6.60369e-06 
-2.41794e-06 
2.32636e-05 
3.83473e-05 
3.76418e-06 
1.92143e-06 
3.05344e-05 
4.44397e-05 
2.9702e-06 
2.96837e-05 
3.57515e-05 
3.21175e-05 
3.80327e-05 
4.35739e-05 
5.16209e-05 
4.65396e-05 
5.14563e-05 
7.00517e-05 
6.7211e-05 
6.8418e-05 
8.47171e-05 
0.000150111 
8.83143e-05 
0.000162902 
-0.00116336 
-0.00113979 
-0.00123755 
-0.00105296 
-0.00128685 
-0.000926202 
-0.00105562 
-0.00130521 
-0.00142834 
-0.0011256 
-0.00138637 
-0.00166431 
-0.00107236 
-0.00140721 
-0.00111872 
-0.00138573 
-0.00141941 
-0.00140571 
-0.00122821 
-0.00123423 
-0.00193892 
-0.00177416 
-0.00173692 
-0.00247049 
-0.00443776 
1.99841e-05 
3.71494e-05 
6.40933e-05 
6.85867e-06 
2.65269e-05 
6.78598e-05 
0.000193844 
6.81645e-05 
0.00012778 
0.000291499 
0.000337913 
0.000211561 
0.000403877 
0.000566425 
7.12843e-05 
0.000268648 
0.000111859 
0.000107849 
0.000212087 
0.000253021 
0.000347019 
0.000260604 
0.000304288 
0.000376856 
0.000588563 
0.000520348 
0.000554341 
0.000664379 
-0.00112912 
-0.000998857 
-0.001275 
-0.000610345 
-0.000523099 
-0.000937179 
-0.0113996 
2.55528e-05 
-0.000791007 
-0.00376481 
-0.0189489 
-0.0146296 
-0.00421019 
-0.00961856 
-0.00164441 
-0.00133603 
-0.00269214 
-0.00976046 
-0.0158836 
-0.00720786 
-0.00400288 
-0.0119782 
-0.0160906 
-0.00560022 
4.29846e-05 
3.63882e-05 
3.78154e-05 
4.26456e-05 
7.40153e-05 
5.49918e-05 
5.43919e-05 
6.65107e-05 
0.000191063 
0.000120204 
0.000113498 
0.000151572 
0.000343754 
0.000301942 
4.09893e-05 
3.21997e-05 
3.20677e-05 
3.9297e-05 
6.25492e-05 
4.79957e-05 
4.89914e-05 
6.09475e-05 
0.000103313 
6.92538e-05 
6.92592e-05 
8.43838e-05 
8.55171e-05 
7.04627e-05 
-0.00115594 
-0.00145229 
-0.00345041 
-0.00115247 
-0.00140374 
-0.00136698 
-0.00112536 
-0.00141701 
-0.00120037 
-0.00119399 
-0.00131211 
-0.00355578 
-0.00169248 
-0.00164113 
-0.00169744 
-0.00598294 
-0.00291836 
-0.00111184 
-0.0012806 
-0.00118768 
-0.00132618 
-0.00118886 
-0.00118168 
-0.00160095 
-0.00151498 
-0.00164506 
-0.00147429 
-0.00201365 
0.000418884 
0.000268713 
0.000267663 
0.000364776 
0.000294315 
0.000115772 
0.000233766 
0.000177539 
0.000105151 
8.44296e-05 
0.000526964 
0.000277004 
0.000178208 
0.000183787 
0.000100546 
6.68658e-05 
1.30554e-05 
2.08409e-05 
1.02711e-05 
2.02759e-05 
5.34283e-05 
-1.0784e-05 
-7.05611e-06 
6.20301e-05 
0.000159685 
0.000115071 
0.000117447 
0.000178585 
-0.0151 
-0.00679271 
0.00025283 
-0.012291 
-0.0207385 
-0.00150181 
-0.00214803 
-0.00943968 
-0.000457876 
0.00226273 
-0.00129191 
-0.000383117 
0.000226558 
-0.000969764 
-0.00676957 
-0.00302561 
-0.00313743 
-0.00391412 
-0.000521299 
0.00262408 
0.000706307 
-9.01392e-06 
0.000536105 
0.00329069 
-0.000508765 
-0.00593246 
-0.00382717 
-0.0019105 
3.74201e-05 
2.54452e-05 
2.2811e-05 
3.40081e-05 
6.88621e-05 
5.30631e-05 
5.33596e-05 
9.17825e-05 
0.000130073 
0.000116921 
0.000145712 
0.000261949 
0.000212549 
0.000323826 
2.78606e-05 
1.28966e-05 
8.07649e-06 
1.37562e-05 
8.8507e-05 
4.43088e-05 
3.47795e-05 
6.05231e-05 
0.000279101 
0.000159331 
0.000141426 
0.000245309 
0.000368942 
0.000358697 
8.26796e-06 
4.35654e-05 
0.000189731 
-0.00104572 
-0.00145922 
-0.002362 
-0.000980765 
-0.00102105 
-0.000870613 
-0.000761955 
-0.00148063 
-0.00114705 
-0.00103033 
-0.00138827 
-0.00352205 
-0.00263729 
-0.00268616 
-0.00477697 
-0.00990847 
-0.0124362 
-0.000625841 
-0.000627945 
-0.000497005 
-0.00036609 
-0.00111297 
-0.000641505 
-0.000472932 
-0.000414019 
-0.00434231 
-0.00205263 
-0.00145271 
-0.00224445 
-0.0110449 
-0.0116908 
0.00016357 
0.000364628 
0.00016955 
0.000256775 
0.000365101 
0.000387798 
0.00015211 
0.000256848 
0.000397239 
0.000300741 
0.000152445 
0.000176676 
0.000210207 
0.000156227 
0.000405874 
0.000353117 
0.000312476 
0.000338412 
0.000312405 
0.000226272 
0.000228589 
0.000226868 
0.000158799 
9.45869e-05 
0.000132623 
0.00012538 
6.44905e-05 
6.68518e-05 
0.000319466 
0.000226669 
0.000123447 
0.000124742 
-0.00207124 
-0.0019637 
-0.00187096 
-0.000978308 
-0.00781769 
-0.0102823 
-0.0103387 
-0.00905524 
-0.00772527 
-0.00377144 
-0.00700699 
-0.017647 
-0.00893016 
-0.00423168 
-0.00118593 
-0.00450085 
-0.00396421 
-0.00306679 
-0.00877809 
-0.00969844 
-0.00197865 
-0.00669861 
-0.00799188 
-0.00406793 
-0.00271463 
-0.0024836 
-0.0022828 
-0.00166166 
0.000403166 
0.00111421 
0.00171068 
-0.000997781 
-2.17126e-08 
-4.83922e-07 
4.12366e-06 
1.3282e-05 
1.04633e-05 
2.13482e-05 
7.42312e-05 
5.2447e-05 
8.89958e-05 
0.000240839 
0.000155994 
4.99629e-06 
1.50566e-06 
1.68256e-06 
3.43223e-06 
2.20391e-05 
1.15092e-05 
1.23136e-05 
1.76711e-05 
7.55822e-05 
3.90122e-05 
3.19049e-05 
4.61265e-05 
0.000103578 
7.23747e-05 
-0.000319596 
-0.000407898 
-0.000426857 
-0.000363121 
-0.000364309 
-0.000337959 
-0.000377043 
-0.000551063 
-0.000990931 
-0.000616235 
-0.000851398 
-0.00154762 
-0.00276451 
-0.0031669 
-0.000415272 
-0.000543077 
-0.000745616 
-0.000939418 
-0.000600402 
-0.000477641 
-0.000559072 
-0.00102637 
-0.0013332 
-0.000769484 
-0.000747028 
-0.00122333 
-0.00155348 
-0.00105597 
0.00018563 
0.000264047 
0.000222368 
0.00022468 
0.000184472 
0.000226512 
0.000263338 
0.000158479 
0.000263016 
0.000267871 
0.000156711 
9.33073e-05 
0.00021527 
0.000170793 
0.000125769 
0.00019458 
0.000324053 
0.000271014 
0.000262089 
0.000481282 
0.000340682 
0.000409752 
0.000494677 
0.000531982 
-0.00373884 
-0.00426897 
-0.00408075 
-0.00469467 
-0.00511601 
-0.00431247 
-0.00459775 
-0.00490034 
-0.0048224 
-0.00557507 
-0.00684503 
-0.00680648 
-0.00720745 
-0.00642008 
-0.0025841 
-0.00134384 
-0.00325558 
-0.00238946 
-0.00137117 
-0.00192289 
-0.00732541 
-0.00467235 
-0.00381492 
-0.0080013 
-0.0119687 
-0.0189274 
-0.0176847 
-0.0106194 
0.000149659 
0.000298055 
0.000552665 
0.000430644 
2.577e-05 
1.05705e-05 
0.000207218 
0.000232263 
8.35763e-05 
1.35075e-05 
0.000182733 
0.000275134 
7.83525e-05 
8.19114e-05 
0.000226793 
0.00022579 
0.000498829 
0.000648954 
0.000732481 
0.000561333 
0.000271325 
0.000359384 
0.000368477 
0.000222898 
0.000306142 
0.000257189 
0.000198509 
0.000171802 
0.000242956 
0.00026524 
0.000203274 
0.000163846 
-0.010309 
-0.0226215 
-0.0177125 
-0.0071419 
-0.0104753 
-0.00333455 
-0.00324465 
-0.00382332 
-0.00869759 
-0.00561524 
-0.00583345 
-0.00996162 
-0.00516123 
-0.00727682 
-0.0102984 
-0.00558341 
-0.0117257 
-0.0242287 
-0.0275579 
-0.00448633 
-0.0061481 
-0.00424088 
-0.00531695 
-0.00210927 
0.000517068 
-0.00416244 
-0.00399456 
-0.00297188 
2.47913e-05 
4.7406e-05 
0.000124394 
0.000104053 
-2.03063e-06 
1.2689e-05 
5.50924e-05 
5.12862e-05 
-2.30962e-05 
-8.97255e-07 
2.61483e-05 
2.28663e-05 
0.000117586 
0.000159767 
0.000141366 
0.00010028 
6.21013e-05 
8.14914e-05 
8.0801e-05 
6.15062e-05 
3.80294e-05 
4.88349e-05 
4.9445e-05 
3.88214e-05 
-0.00266018 
-0.00309158 
-0.00340536 
-0.00223949 
-0.00169427 
-0.00155367 
-0.00168009 
-0.00141521 
-0.00154145 
-0.00109238 
-0.00119049 
-0.00136079 
-0.00219299 
-0.00253004 
-0.0022783 
-0.00146017 
-0.0016937 
-0.00162585 
-0.00145488 
-0.0013054 
-0.00130244 
0.00048092 
0.000461424 
0.000225838 
0.000183812 
0.000172594 
0.000243881 
0.000188854 
0.000208656 
0.000187763 
0.000169309 
0.000243805 
0.000386603 
0.000184811 
0.000253237 
0.000391531 
0.000346975 
0.000174792 
0.000191658 
0.000224817 
0.000232373 
0.000237526 
0.000197503 
0.000222773 
0.000241577 
0.000451234 
0.00033052 
0.00029499 
0.000273461 
0.00034881 
0.000416928 
0.000297917 
0.000179983 
-0.0151262 
0.00100564 
-0.00300803 
-0.00282088 
-0.00268413 
-0.000863964 
-0.00159162 
-0.00304027 
-0.0021524 
-0.00202351 
-0.00284127 
-0.00356644 
-0.00669868 
-0.00431973 
-0.00649237 
-0.0144532 
-0.00437472 
-0.012934 
-0.0189523 
-0.00687262 
-0.00509017 
-0.00735255 
-0.00522996 
-0.00346038 
-0.00310575 
-0.00414141 
-0.0096894 
-0.0061981 
-0.00394374 
-0.00495697 
-0.00784914 
-0.0041201 
0.000100215 
0.000159076 
0.000191924 
0.000124041 
6.03849e-05 
7.76589e-05 
7.66355e-05 
5.51485e-05 
4.15527e-05 
4.8471e-05 
4.49841e-05 
3.54826e-05 
0.000118109 
0.000188069 
0.000140241 
6.48354e-05 
5.04527e-05 
6.34792e-05 
5.18869e-05 
3.26788e-05 
3.45738e-05 
3.72461e-05 
3.1371e-05 
2.49175e-05 
-0.00188913 
-0.00139575 
-0.00148147 
-0.00180006 
-0.00344922 
-0.00355551 
-0.00170003 
-0.00132534 
-0.00149716 
-0.00136804 
-0.00112532 
-0.00145569 
-0.00121633 
-0.00114365 
-0.00135014 
-0.00146852 
-0.00205368 
-0.00148719 
-0.00099759 
-0.000986493 
-0.000821736 
-0.00124731 
-0.000938498 
-0.000839898 
0.000262594 
0.000212683 
0.000191856 
0.000259217 
0.000318325 
0.000345721 
0.000378925 
0.000332351 
0.000197641 
0.000294766 
0.000303448 
0.000151906 
9.94474e-05 
0.000120453 
6.91293e-05 
1.82758e-05 
0.000198751 
0.000115412 
0.000103417 
0.000202149 
0.000348095 
0.000322297 
0.000332348 
0.000414792 
0.000155283 
0.000339555 
0.000436461 
0.000299414 
1.30501e-05 
7.61563e-05 
0.000126825 
7.21973e-05 
0.000227773 
0.000412342 
0.000366724 
0.00012174 
-0.00660131 
-0.00315717 
-0.00325017 
-0.00154266 
-0.00376309 
-0.00274843 
-0.0037686 
-0.000237302 
-0.0181102 
-0.0139736 
-0.00622553 
-0.00503425 
-0.000540419 
-0.00951362 
-0.0048189 
0.000224256 
-0.000370552 
5.086e-06 
0.000406701 
8.65753e-05 
-0.000163124 
-0.00118467 
-0.00159336 
-0.0046068 
-0.017431 
-0.0083523 
-0.00763113 
-0.00717485 
-0.000550298 
-0.0192239 
-0.00980453 
-0.00398447 
-0.000249586 
-0.000319731 
-0.00202466 
-0.00200515 
4.09902e-05 
4.25673e-05 
1.5242e-05 
7.74489e-06 
2.53574e-05 
2.24208e-05 
1.44822e-05 
1.27431e-05 
2.21332e-05 
2.05038e-05 
1.57569e-05 
1.31017e-05 
6.45723e-06 
9.92772e-06 
2.53234e-05 
2.26947e-05 
1.06022e-05 
8.97094e-06 
1.18644e-05 
1.0523e-05 
1.00856e-05 
1.00731e-05 
7.75987e-06 
3.37341e-06 
3.4954e-05 
1.21345e-05 
1.94306e-06 
-0.000739958 
-0.000726359 
-0.00106674 
-0.000517577 
-0.000254298 
-0.000158218 
-0.000357217 
-0.00063033 
-0.00050826 
-0.000452048 
-0.000502454 
-0.000937755 
-0.000652126 
-0.000584012 
-0.000753304 
-0.000443677 
-0.000600059 
-0.000922654 
-0.000768591 
-0.000472908 
-0.000498858 
-0.000534219 
-0.000468507 
-0.000625956 
-0.000471078 
-0.000434422 
-0.000491789 
0.000193461 
0.000236782 
0.000194772 
0.000339406 
0.000280337 
0.000405195 
0.000501313 
0.000592764 
0.000499767 
0.000268222 
0.000342191 
0.000219232 
0.00015152 
0.000263864 
0.000296948 
0.000298035 
0.000275891 
0.000139845 
0.000175788 
0.000333185 
0.000429919 
0.000349094 
0.00026929 
0.000326408 
0.000240904 
0.000311538 
0.000262551 
0.00021487 
-0.00361079 
-0.00638955 
-0.00507427 
0.00129106 
-0.00975434 
-0.00415188 
-4.7314e-05 
-0.00133649 
-0.0108127 
-0.0272487 
-0.0174809 
-0.00954981 
-0.00245143 
-0.00636109 
-0.00812746 
-0.0050256 
0.00132916 
-0.0079551 
-0.00583252 
-0.0063393 
0.000552665 
0.00123184 
-0.0093654 
-0.0257421 
-0.00721609 
-0.00468906 
-0.00625606 
-0.00717124 
-0.00571512 
-0.00701834 
-0.00377648 
-0.00412188 
8.19894e-05 
0.000111205 
6.80599e-05 
2.39543e-05 
3.03278e-05 
1.91508e-05 
7.47446e-06 
8.1762e-06 
1.41019e-06 
8.11026e-05 
0.000147435 
0.000138228 
8.96005e-05 
2.35403e-05 
4.60257e-05 
4.79293e-05 
2.99022e-05 
4.22017e-06 
1.41844e-05 
1.56207e-05 
1.16904e-06 
-0.000869809 
-0.00158195 
-0.0021155 
-0.00141316 
-0.000480804 
-0.000668051 
-0.000763288 
-0.000605115 
-0.00044737 
-0.000419665 
-0.000448883 
-0.000490888 
-0.00156951 
-0.0025566 
-0.00221334 
-0.00227495 
-0.000686226 
-0.000973934 
-0.0010805 
-0.0014139 
-0.000582164 
-0.000587413 
-0.000696494 
-0.00121672 
