ITEM: TIMESTEP
5000000
ITEM: NUMBER OF ATOMS
896
ITEM: BOX BOUNDS pp pp ff
-1.7153631884999999e+01 1.8003017117999999e+01
-1.7855467918999999e+01 1.7553981017000002e+01
-3.4618715923000003e+01 3.4618715923000003e+01
ITEM: ATOMS q 
0 
0 
0 
0 
0 
0 
0 
0 
0 
0 
0 
0 
0 
0 
0 
0 
0 
0 
0 
0 
0 
0 
0 
0 
0 
0 
0 
0 
0 
0 
0 
0 
0 
0 
0 
0 
0 
0 
0 
0 
0 
0 
0 
0 
0 
0 
0 
0 
0 
0 
0 
0 
0 
0 
0 
0 
0 
0 
0 
0 
0 
0 
0 
0 
0 
0 
0 
0 
0 
0 
0 
0 
0 
0 
0 
0 
0 
0 
0 
0 
0 
0 
0 
0 
0 
0 
0 
0 
0 
0 
0 
0 
0 
0 
0 
0 
0 
0 
0 
0 
0 
0 
0 
0 
0 
0 
0 
0 
0 
0 
0 
0 
0 
0 
0 
0 
0 
0 
0 
0 
0 
0 
0 
0 
0 
0 
0 
0 
0 
0 
0 
0 
0 
0 
0 
0 
0 
0 
0 
0 
0 
0 
0 
0 
0 
0 
0 
0 
0 
0 
0 
0 
0 
0 
0 
0 
0 
0 
0 
0 
0 
0 
0 
0 
0 
0 
0 
0 
0 
0 
0 
0 
0 
0 
0 
0 
0 
0 
0 
0 
0 
0 
0 
0 
0 
0 
0 
0 
0 
0 
0 
0 
0 
0 
0 
0 
0 
0 
0 
0 
0 
0 
0 
0 
0 
0 
0 
0 
0 
0 
0 
0 
0 
0 
0 
0 
0 
0 
0 
0 
0 
0 
0 
0 
0 
0 
0 
0 
0 
0 
0 
0 
0 
0 
0 
0 
0 
0 
0 
0 
0 
0 
0 
0 
0 
0 
0 
0 
0 
0 
0 
0 
0 
0 
0 
0 
0 
0 
0 
0 
0 
0 
0 
0 
0 
0 
0 
0 
0 
0 
0 
0 
0 
0 
0 
0 
0 
0 
0 
0 
0 
0 
0 
0 
0 
0 
0 
0 
0 
0 
0 
0 
0 
0 
0 
0 
0 
0 
0 
0 
0 
0 
0 
0 
0 
0 
0 
0 
0 
0 
0 
0 
0 
0 
0 
0 
0 
0 
0 
0 
0 
0 
0 
0 
0 
0 
0 
0 
0 
0 
0 
0 
0 
0 
0 
0 
0 
0 
0 
0 
0 
0 
0 
0 
0 
0 
0 
0 
0 
0 
0 
0 
0 
0 
0 
0 
0 
0 
0 
0 
0 
0 
0 
0 
0 
0 
0 
0 
0 
0 
0 
0 
0 
0 
0 
0 
0 
0 
0 
0 
0 
0 
0 
0 
0 
0 
0 
0 
0 
0 
0 
0 
0 
0 
0 
0 
0 
0 
0 
0 
0 
0 
0 
0 
0 
0 
0 
0 
0 
0 
0 
0 
0 
0 
0 
0 
0 
0 
0 
0 
0 
0 
0 
0 
0 
0 
0 
0 
0 
0 
0 
0 
0 
0 
0 
0 
0 
0 
0 
0 
0 
0 
0 
0 
0 
0 
0 
0 
0 
0 
0 
0 
0 
0 
0 
0 
0 
0 
0 
0 
0 
0 
0 
0 
0 
0 
0 
0 
0 
0 
0 
0 
0 
0 
0 
0 
0 
0 
0 
0 
0 
0 
0 
0 
0 
0 
0 
0 
0 
0 
0 
0 
0 
0 
0 
0 
0 
0 
0 
0 
0 
0 
0 
0 
0 
0 
0 
0 
0 
0 
0 
0 
0 
0 
0 
0 
0 
0 
0 
0 
0 
0 
0 
0 
0 
0 
0 
0 
0 
0 
0 
0 
0 
0 
0 
0 
0 
0 
0 
0 
0 
0 
0 
0 
0 
0 
0 
0 
0 
0 
0 
0 
0 
0 
0 
0 
0 
0 
0 
0 
0 
0 
0 
0 
0 
0 
0 
0 
0 
0 
0 
0 
0 
0 
0 
0 
0 
0 
0 
0 
0 
0 
0 
0 
0 
0 
0 
0 
0 
0 
0 
0 
0 
0 
0 
0 
0 
0 
0 
0 
0 
0 
0 
0 
0 
0 
0 
0 
0 
0 
0 
0 
0 
0 
0 
0 
0 
0 
0 
0 
0 
0 
0 
0 
0 
0 
0 
0 
0 
0 
0 
0 
0 
0 
0 
0 
0 
0 
0 
0 
0 
0 
0 
0 
0 
0 
0 
0 
0 
0 
0 
0 
0 
0 
0 
0 
0 
0 
0 
0 
0 
0 
0 
0 
0 
0 
0 
0 
0 
0 
0 
0 
0 
0 
0 
0 
0 
0 
0 
0 
0 
0 
0 
0 
0 
0 
0 
0 
0 
0 
0 
0 
0 
0 
0 
0 
0 
0 
0 
0 
0 
0 
0 
0 
0 
0 
0 
0 
0 
0 
0 
0 
0 
0 
0 
0 
0 
0 
0 
0 
0 
0 
0 
0 
0 
0 
0 
0 
0 
0 
0 
0 
0 
0 
0 
0 
0 
0 
0 
0 
0 
0 
0 
0 
0 
0 
0 
0 
0 
0 
0 
0 
0 
0 
0 
0 
0 
0 
0 
0 
0 
0 
0 
0 
0 
0 
0 
0 
0 
0 
0 
0 
0 
0 
0 
0 
0 
0 
0 
0 
0 
0 
0 
0 
0 
0 
0 
0 
0 
0 
0 
0 
0 
0 
0 
0 
0 
0 
0 
0 
0 
0 
0 
0 
0 
0 
0 
0 
0 
0 
0 
0 
0 
0 
0 
0 
0 
0 
0 
0 
0 
0 
0 
0 
0 
0 
0 
0 
0 
0 
0 
0 
0 
0 
0 
0 
0 
0 
0 
0 
0 
0 
0 
0 
0 
0 
0 
0 
0 
0 
0 
0 
0 
0 
0 
0 
0 
0 
0 
0 
0 
0 
0 
0 
0 
0 
0 
0 
0 
0 
0 
0 
0 
0 
0 
0 
0 
0 
0 
0 
0 
0 
0 
0 
0 
0 
0 
0 
0 
0 
0 
0 
0 
0 
0 
0 
ITEM: TIMESTEP
6000000
ITEM: NUMBER OF ATOMS
896
ITEM: BOX BOUNDS pp pp ff
-1.7153631884999999e+01 1.8003017117999999e+01
-1.7855467918999999e+01 1.7553981017000002e+01
-3.4618715923000003e+01 3.4618715923000003e+01
ITEM: ATOMS q 
-0.0134094 
-0.00434759 
0.00711878 
0.00623401 
-0.00496025 
-0.00278139 
0.000291692 
0.00264683 
0.00337508 
0.00281245 
0.00444823 
0.00263912 
0.00829411 
0.0121156 
0.00747922 
0.000428372 
0.00217069 
0.00542868 
0.00206519 
0.00203873 
0.00204814 
0.00404328 
0.00418869 
0.00419153 
-0.00020077 
-0.00025752 
-0.000307892 
-0.000303489 
-0.000180685 
-0.000140382 
-0.000234777 
-0.000219482 
-0.000237604 
-0.000176683 
-0.000192585 
-0.000210499 
-0.000261602 
-0.000282257 
-0.000145394 
-0.000213225 
-0.000191399 
-0.000102979 
-0.000225912 
-0.000207144 
-0.000173941 
0.00741925 
0.00353768 
0.0025311 
0.0041609 
0.0069848 
0.00361712 
-0.00112753 
-0.00449857 
0.00307954 
-0.000410385 
-0.0044262 
-0.00222368 
0.00284094 
0.000880777 
0.00233566 
-0.00207781 
0.00662849 
0.00321678 
0.00485581 
0.00450097 
-0.00256089 
0.00421127 
0.00404764 
-0.000981391 
-0.00207965 
-0.00287419 
-0.00371477 
-0.0155315 
-0.00326081 
-0.00188908 
-0.00599227 
-0.00136969 
-0.000212712 
-0.000191079 
-0.000213266 
-0.000212454 
-4.32747e-05 
-8.61508e-05 
-0.000101306 
4.95461e-06 
1.50047e-05 
3.43222e-05 
6.70223e-05 
9.54461e-05 
0.000169061 
3.4229e-05 
9.17173e-05 
7.90826e-05 
-0.000216419 
-0.00023651 
-0.000227377 
-7.24122e-06 
-0.000135095 
-0.000131029 
0.000210731 
0.000180502 
0.000233499 
4.22651e-05 
0.000195279 
0.000255466 
-0.0010719 
0.00141461 
-0.00713235 
-0.00228335 
-0.000530481 
-0.00272916 
-5.88973e-06 
0.00182029 
0.00342063 
0.00175924 
0.00197894 
0.00161932 
-0.000222601 
-0.00990856 
-0.000534382 
0.00383141 
0.00337212 
0.00434873 
0.00441957 
0.00500249 
0.00270674 
0.00296599 
0.00230996 
0.00156368 
0.00533478 
0.0056634 
-0.000424021 
-4.60776e-05 
-0.000101799 
-0.000200123 
-2.41796e-06 
-3.15051e-05 
-3.46186e-05 
-4.49911e-05 
-8.76688e-05 
-3.58097e-05 
-8.26142e-05 
-0.000155722 
-0.000174833 
-0.000139006 
-0.000150435 
-0.000146457 
-8.96467e-05 
-4.64188e-05 
-9.43037e-05 
-0.000157401 
-0.00019713 
-0.000188325 
-0.000197216 
-0.000183794 
-0.000113071 
-0.000163505 
-0.000137947 
-2.69595e-05 
-0.00219189 
6.83669e-05 
1.7374e-05 
-0.00959058 
0.000120299 
-7.71107e-05 
8.14176e-05 
-0.000214857 
-0.00194463 
-0.00668524 
-0.00202296 
0.000129154 
0.00629035 
-0.00661607 
-0.00612053 
5.84839e-05 
0.00234424 
0.00442722 
-0.00848099 
9.83448e-05 
-0.000170413 
-0.00188125 
-8.7168e-05 
0.000159175 
0.00425479 
0.00528326 
-0.00162374 
0.000144946 
3.15233e-05 
0.00373037 
-0.000477555 
0.000371598 
0.00011211 
-0.000373057 
0.00357439 
0.00331582 
-2.61486e-05 
-0.00269718 
7.63017e-08 
9.79461e-05 
-4.0209e-05 
-0.00416706 
7.89966e-05 
-0.00828123 
-0.000212859 
-6.86869e-05 
-0.00155003 
0.00823567 
0.000209133 
-0.00212067 
-0.00759617 
7.85353e-05 
-0.0234743 
-0.000209879 
-0.000164306 
1.51877e-05 
-3.121e-05 
-0.000131656 
-0.000214139 
0.00408363 
6.20333e-05 
0.000157978 
0.000735985 
-0.00250975 
-0.000205025 
-0.00362973 
-0.00125027 
2.47087e-05 
-0.00875694 
1.72191e-05 
0.00367941 
-1.42389e-05 
-0.000819234 
-0.00125085 
-0.00213599 
0.00583478 
-0.000268933 
-0.000336032 
0.00123789 
0.000447956 
-0.00678143 
-0.000475708 
0.001852 
0.00279878 
0.00560054 
-4.16306e-05 
0.00146608 
0.00522343 
0.00384872 
-0.00343959 
0.00085735 
0.00209268 
0.00143823 
0.00333444 
0.0023316 
0.00188178 
-0.000101337 
-6.72915e-05 
-9.92462e-05 
-8.24116e-05 
-0.0001151 
-9.0832e-05 
-6.45426e-05 
-6.81031e-05 
5.38126e-05 
-5.52137e-06 
1.51224e-05 
4.28877e-05 
-0.000151157 
-0.000169021 
-0.000188544 
-0.000211538 
-0.000124725 
-0.000187461 
-0.00020664 
-0.000185345 
-4.65662e-05 
-0.00012112 
-0.000153246 
-0.000135095 
-0.00321134 
-0.00832275 
-0.00457582 
-0.0017491 
-0.00100342 
0.00186036 
0.00207464 
0.00372539 
0.00793057 
0.00447644 
0.0075561 
0.00683117 
-0.00220659 
-0.00194585 
0.0009816 
0.00309446 
0.00238992 
0.00051824 
0.00194776 
0.00139723 
0.00828832 
0.00403857 
0.00158237 
0.00237464 
-0.00134786 
0.00235994 
0.000918879 
-0.00721929 
0.00327899 
0.00378494 
0.0026623 
-0.0105603 
9.58155e-05 
0.000134327 
9.17852e-05 
1.90645e-05 
-4.97403e-05 
1.67413e-05 
-2.80277e-05 
-0.000138828 
-0.000199486 
-0.000179124 
-0.000216978 
-0.000247331 
-0.000168635 
-0.000249659 
-0.000240191 
-0.000111618 
-6.49595e-05 
-8.19109e-05 
-0.000134385 
-0.000169933 
-0.000151027 
-0.000124859 
-0.000171515 
-0.000197393 
-0.000170151 
-0.00016576 
-0.00016235 
-0.000124516 
1.66658e-05 
-4.04727e-05 
9.26492e-06 
0.000126921 
0.00362458 
0.00734484 
0.00643281 
0.00223928 
0.00484521 
0.00441895 
0.00205955 
0.00348764 
0.000121527 
0.00553162 
0.00645778 
-0.0126617 
-0.020422 
0.00417452 
0.00502396 
-0.00638664 
-0.0108067 
-0.00938535 
-0.00657239 
-0.0039424 
-0.00252129 
-0.000231487 
-0.000239306 
-0.000197426 
-0.000148365 
-0.000191986 
-0.000224854 
-0.000177444 
-6.03359e-05 
-0.000103401 
-0.000130667 
-2.41403e-05 
0.000110099 
2.96018e-06 
-7.06438e-05 
-0.000405427 
-0.00035112 
5.34948e-05 
4.58179e-05 
-9.80196e-05 
-0.00020899 
0.000119133 
9.60575e-05 
-2.6455e-05 
-0.000119358 
2.70369e-05 
0.000104707 
8.34058e-05 
0.00556888 
1.64082e-05 
-3.01792e-05 
-0.00853113 
-0.000122309 
0.00225143 
-6.50176e-05 
0.00272146 
-0.000213311 
-0.00525489 
0.00429318 
0.00118361 
0.00520013 
7.2991e-06 
-0.000207877 
-0.00012316 
-0.000150806 
-0.000120187 
-8.88806e-05 
-4.15855e-05 
7.44802e-05 
-4.46432e-07 
0.00476796 
0.001204 
0.00332205 
0.00508078 
-0.00013886 
-4.14876e-05 
0.00388588 
0.00357422 
0.000648724 
0.00293256 
0.0058887 
0.000863379 
-0.000147941 
0.000135009 
0.000142611 
0.00315439 
-0.000134099 
-0.000232243 
0.0046567 
-0.000234715 
-0.000221491 
2.03596e-05 
0.00273614 
-0.00593611 
0.00486575 
-0.00579097 
4.23147e-05 
0.00983626 
-0.000138496 
-0.000168746 
1.27248e-05 
-7.85319e-05 
0.00261056 
-0.00360943 
-0.000223569 
-0.000589345 
-0.0122606 
-0.0124961 
-0.00411583 
0.00879285 
0.00155869 
-0.000297888 
0.0030836 
0.0145143 
0.00448292 
0.00233099 
-0.000906013 
0.00559457 
0.00470052 
0.00185723 
-0.00161341 
0.00375078 
0.00746318 
0.00420095 
0.00434291 
0.0035858 
0.00733127 
-0.00127947 
0.00356448 
0.0034718 
0.0012737 
-0.00345398 
-0.00412308 
0.000130254 
0.000175325 
6.85421e-05 
-5.71151e-05 
-9.85471e-05 
-5.21461e-05 
-9.30083e-05 
-0.000177222 
0.000228756 
-0.000145433 
-0.000144199 
-8.53564e-05 
0.000574083 
-9.58579e-05 
-0.000181744 
-0.000113946 
-0.000179387 
-0.000230374 
-0.000275937 
-0.000333839 
-7.68107e-05 
-0.00020122 
-0.000247778 
-1.94702e-05 
-0.000105995 
0.056375 
0.00345439 
0.0547444 
0.0218195 
-0.000108719 
0.000707568 
0.0094191 
0.00456462 
0.00103456 
0.00489225 
-0.00259536 
0.00700857 
0.00747879 
0.00592794 
-0.00125573 
-0.00479905 
0.00379093 
0.000575846 
-0.00157742 
0.00381095 
0.00342491 
0.00280363 
0.00337908 
0.00611651 
0.0115505 
0.0057628 
0.00897194 
0.0128808 
-0.00419359 
-5.48357e-05 
-0.00675205 
-0.00161288 
0.000185684 
-0.00013932 
-0.000462431 
0.000333181 
-0.000208758 
-0.000296151 
-0.000376112 
-0.000269435 
-0.000327433 
-0.000351905 
-3.04793e-05 
-0.000170492 
-8.51542e-05 
-0.00012773 
-0.000304859 
-0.000245679 
-0.000254272 
-0.000335059 
-0.000343602 
-0.000318144 
0.00914691 
0.00832586 
0.0077701 
0.00349118 
0.0074704 
0.00771965 
0.00366776 
0.00237179 
0.0025313 
0.00649775 
0.00364226 
0.00348149 
0.00367986 
0.00673682 
-0.00476031 
-0.00471369 
-0.00655865 
-0.00255187 
0.000927383 
-0.00656464 
-0.00196827 
0.00112344 
0.00303213 
-7.98166e-05 
-0.00188303 
0.00238607 
0.00685463 
0.00857009 
0.00364754 
0.00229544 
0.00274819 
-0.000318851 
-0.00032988 
-0.00020955 
-0.000258334 
-0.000142453 
9.41668e-08 
2.79493e-05 
-0.000271375 
-0.000222517 
-8.06391e-05 
-6.80684e-05 
-0.000253846 
-0.000236389 
-0.000168979 
-0.000213592 
-0.000267207 
-0.000283196 
7.95876e-05 
0.00013286 
3.61845e-05 
-8.85005e-05 
-2.50579e-05 
1.68322e-05 
-5.65734e-05 
-0.000114536 
-0.000195748 
-0.000102209 
-0.000122011 
-0.000130428 
-0.000224195 
-0.00014445 
-0.00295166 
-0.0016807 
0.00990808 
0.00165349 
-0.00332473 
-0.0012292 
-0.000101026 
0.00661292 
0.00478819 
-0.00332084 
1.21715e-05 
-0.000288801 
-0.0246551 
-0.000329583 
-0.000217688 
0.0061616 
0.000116542 
9.68459e-05 
0.00399886 
0.000378851 
-6.10768e-05 
0.0034159 
0.00119925 
0.000187852 
0.0070196 
-0.0110836 
0.0060741 
-0.000161088 
0.000172436 
-0.000245347 
-0.000166001 
0.00584803 
-3.52027e-05 
0.00334844 
-0.000171812 
-0.00256436 
-0.000222679 
0.00424589 
-0.000238693 
-0.000248871 
0.00320321 
-0.0102844 
0.000149904 
-0.00422986 
9.29897e-06 
-0.000242921 
-0.000220336 
0.00430526 
-0.0277078 
-0.000138976 
-8.33468e-05 
0.00153222 
-0.00277364 
0.00828734 
0.000209631 
8.77315e-05 
-0.00023714 
7.03492e-06 
-0.000141732 
-0.000269528 
0.00494173 
-8.51948e-06 
0.000353986 
0.000378415 
0.00313709 
0.00529432 
0.000433143 
0.00293183 
0.00178859 
0.000530712 
0.00291808 
0.00232446 
-0.00253255 
0.00163327 
-0.00227167 
0.000927381 
-0.00293939 
-0.00691331 
-0.00434588 
-0.00163059 
0.000372285 
0.000698035 
0.00140139 
-0.00543059 
-0.0018784 
-3.88401e-05 
0.004175 
-0.00908791 
0.00255892 
-0.00453879 
0.002648 
0.00709144 
-0.000146759 
-0.000174972 
-0.0001171 
-4.27409e-05 
-0.000112041 
-0.000112309 
-6.66729e-05 
-1.55002e-05 
-5.1617e-05 
-5.78528e-05 
6.4074e-06 
8.54346e-05 
4.68053e-05 
0.000123168 
3.70172e-05 
0.00010421 
0.000140149 
8.43386e-05 
-3.15168e-05 
-8.0068e-06 
-1.09519e-05 
-0.000133896 
4.61287e-06 
-7.64311e-05 
-0.000176927 
-0.000274766 
-8.89033e-05 
-0.000259542 
-0.00520268 
-0.00450048 
-0.00334066 
-0.00134696 
-0.00692456 
-0.00183333 
0.00151842 
-0.00235961 
0.00122923 
0.00344925 
-0.0115292 
0.00646379 
0.000884151 
-0.00142333 
0.00327248 
0.00214859 
0.0055947 
0.0038574 
0.00136246 
0.00192573 
0.00389428 
0.00382205 
0.00139215 
-0.000414181 
0.00710294 
0.00928211 
0.00140411 
0.00105101 
8.64713e-05 
0.00014787 
0.00017066 
0.0001366 
9.6644e-05 
-2.84685e-05 
6.20709e-05 
7.07425e-05 
-6.11751e-05 
-0.000148383 
-5.38738e-05 
-5.82993e-05 
-0.000137865 
-0.000165401 
-1.32282e-05 
-0.000345496 
-0.000126004 
-0.000157919 
-0.00030205 
-0.00033153 
-0.000154254 
-0.000174666 
-0.000243584 
-0.000200926 
-0.000146762 
-0.000133947 
-0.00012214 
-0.000127253 
-0.0109283 
0.001596 
-0.000684925 
0.00349601 
-0.000430767 
-0.00134167 
0.00388717 
0.00741823 
0.00841039 
0.00794009 
0.00467286 
-0.00119227 
0.00186181 
0.00649275 
0.0139393 
-0.00602991 
-0.00161288 
0.00567441 
0.00197913 
0.00332087 
-0.00129769 
-0.00641216 
0.00189268 
0.00309793 
0.00458791 
4.20587e-05 
8.47021e-06 
-0.000101368 
-7.6149e-05 
-0.000133014 
-4.88668e-05 
-4.25783e-05 
-1.23459e-05 
-0.00031517 
-0.00022563 
-0.000120715 
-0.000274782 
-0.000352423 
-0.000378609 
-0.000150315 
-0.000158649 
8.4791e-06 
0.000118603 
-1.10798e-06 
-9.20271e-05 
-1.30433e-05 
8.62366e-05 
-0.000104237 
6.78448e-05 
0.000117147 
0.0011481 
-0.0011377 
0.00441551 
-0.000393757 
-0.000183819 
-0.000333446 
-0.0331289 
0.00461338 
-0.00011828 
0.00982273 
-0.0283276 
-0.034403 
0.000141925 
0.0069161 
0.0100597 
0.0025087 
-0.000254502 
0.000126652 
-0.000443069 
-0.000407107 
-0.000207072 
0.00921692 
0.00348626 
0.00681461 
-0.0138697 
-0.000337528 
0.00597141 
0.00722519 
0.00623887 
-0.000388947 
0.0150759 
0.000393321 
-0.00487859 
0.00363961 
-0.000368655 
-0.000231689 
-0.000976954 
3.52174e-05 
-0.00815673 
-0.00158306 
0.00830407 
-0.00335896 
-0.000164748 
-0.00353255 
0.00825649 
0.000824393 
-0.000254016 
0.0084676 
-0.000371088 
0.00824068 
-0.000272176 
0.000618717 
0.0081055 
-0.000844207 
-0.000954749 
ITEM: TIMESTEP
7000000
ITEM: NUMBER OF ATOMS
896
ITEM: BOX BOUNDS pp pp ff
-1.7153631884999999e+01 1.8003017117999999e+01
-1.7855467918999999e+01 1.7553981017000002e+01
-3.4618715923000003e+01 3.4618715923000003e+01
ITEM: ATOMS q 
-0.000664762 
0.000353096 
-0.00163815 
-0.000793066 
0.00468656 
-0.00488661 
-0.0042721 
-1.68385e-06 
0.00106636 
0.0065308 
0.00480274 
0.00258812 
-0.00154762 
-0.0027775 
-0.00170038 
0.0041625 
0.00245108 
0.00283129 
0.0083285 
0.00496425 
0.000516702 
-0.0021519 
0.000856276 
0.0039778 
4.66427e-05 
2.2028e-05 
4.46697e-05 
-1.16419e-05 
-3.98598e-05 
3.9403e-05 
-2.6146e-05 
-8.00326e-05 
4.92798e-05 
-6.70512e-05 
-5.61866e-05 
-7.8444e-05 
-7.30158e-05 
-7.99909e-06 
-6.9881e-05 
-0.000131967 
-0.000167367 
-0.000108109 
-0.00014086 
-0.000143607 
-0.000184661 
-0.0167426 
-0.0087125 
-0.00861221 
-0.00743757 
-0.0012771 
-0.00393123 
-0.00133413 
4.82365e-05 
-6.16028e-05 
0.00260848 
-0.00248944 
-0.00316053 
0.00722212 
-0.00226492 
-0.00477924 
0.000677948 
0.00676185 
0.00410474 
0.00527786 
0.0072097 
0.00139484 
0.0138599 
0.0106137 
0.001976 
0.00228547 
-0.00172059 
0.00171297 
0.00236857 
0.00314248 
0.00545738 
0.00348998 
0.00156225 
0.000181125 
0.000133502 
-2.13215e-05 
-0.000144731 
4.3433e-05 
7.59064e-05 
-6.96876e-05 
-0.00012709 
3.36288e-05 
1.27468e-05 
-2.17787e-05 
-6.32938e-05 
-7.30828e-05 
1.09426e-05 
-5.71076e-05 
-0.000138384 
-0.000279375 
-0.000242744 
-0.000306824 
-0.000197549 
-0.000302228 
-0.000255337 
-0.000100192 
-0.000112009 
-0.00010317 
-0.000156678 
-0.000133297 
-0.00010242 
0.00342197 
-0.00055355 
0.00532172 
-0.000887997 
0.00387828 
-0.000145002 
-0.0142593 
-0.0154811 
0.00704096 
0.00421884 
0.000159118 
0.00704074 
0.00260676 
0.0184841 
0.0110284 
0.0051868 
-0.00392578 
0.000210711 
0.00638375 
0.00562196 
0.00268298 
0.0033064 
0.00485355 
0.00429202 
0.00446282 
0.0013842 
0.00534256 
-6.35436e-05 
-0.000112512 
-0.000256044 
2.51247e-05 
-4.99747e-05 
-0.000126285 
-0.000121492 
4.67574e-05 
0.000154185 
7.58169e-05 
3.57115e-05 
-0.00024651 
-3.96619e-05 
-2.33235e-05 
-0.000188913 
-0.000243233 
-0.00033222 
-0.000202596 
-0.000129981 
-0.000114652 
-0.000190798 
-0.00017236 
-0.000106605 
-0.000189556 
-0.000176935 
-0.000163209 
-0.000175633 
-6.04459e-05 
-0.000130101 
-0.00414443 
9.57325e-06 
0.00419526 
0.00206232 
-0.000316231 
-0.000158349 
0.000224079 
-0.000205301 
3.40219e-05 
-0.000253922 
0.00413018 
-0.00022826 
2.74779e-05 
-0.000233736 
0.0114616 
0.000558771 
-0.000113938 
-8.20813e-05 
0.000540353 
-2.05458e-05 
-0.00811212 
0.000405145 
-0.000247787 
-0.000148313 
-8.3718e-05 
0.00517664 
-0.00022902 
0.00444084 
-0.000275682 
-0.0010106 
-0.000115032 
-0.000313229 
0.00480626 
0.00891124 
-0.000156379 
-4.39699e-05 
-0.00590616 
0.00353681 
0.000487936 
0.00319507 
-0.00011487 
2.18505e-05 
-7.01256e-05 
0.000296288 
0.00420873 
0.00942524 
0.00252713 
-0.000148156 
-5.45403e-05 
0.000889202 
0.00768945 
-4.12126e-05 
-0.000220783 
-7.05209e-05 
6.41063e-05 
-7.41907e-05 
0.00626118 
0.000255089 
0.00155969 
-0.000151037 
-0.00319432 
-0.00256712 
0.000427433 
0.003786 
-4.55554e-05 
-0.000333703 
0.0054025 
0.00377676 
0.00214503 
-0.000216828 
0.00524548 
-0.00465437 
-0.00528669 
0.00126145 
-0.00360187 
-0.0021737 
0.000293851 
-0.0045515 
-0.00172677 
-0.00477838 
-0.00670105 
-5.98548e-05 
-0.00631754 
-2.58545e-05 
-0.00222665 
-0.00500936 
-0.00506629 
-0.000437501 
-0.000545541 
-0.00297521 
-1.52354e-05 
-0.0152928 
-0.00434865 
-0.000574118 
4.22559e-06 
3.10254e-05 
0.000136704 
0.000155638 
2.032e-06 
7.07963e-05 
0.000126716 
9.42467e-05 
-8.39049e-05 
3.35353e-05 
6.00684e-05 
1.73438e-05 
0.000206759 
0.000181315 
0.000263239 
0.000402243 
0.000143856 
0.000230258 
0.000332833 
0.000285267 
2.00549e-05 
0.000110796 
0.000145696 
0.000107052 
0.00574037 
0.0018196 
0.00302359 
0.00176636 
0.00394135 
0.00467668 
0.00275782 
0.00434987 
0.00628335 
0.00598902 
0.0070836 
0.00539404 
0.000618725 
-0.000146282 
0.00192555 
0.00453182 
0.00190426 
0.000221427 
0.00207 
-0.000472218 
0.00392255 
-0.000100457 
-0.0054068 
-0.0198147 
0.00549805 
0.000948524 
-0.00778387 
0.000697584 
0.000146686 
-0.00261994 
-0.0207508 
0.000992466 
-0.000174742 
-0.000107041 
-3.98891e-05 
-5.80204e-05 
-0.000162838 
-0.000155892 
-0.000105047 
-7.13739e-05 
-0.000205185 
-0.000190517 
-0.000136358 
-9.58292e-05 
-0.000261638 
-0.000250938 
-0.000190831 
-0.000223908 
-4.30216e-05 
-1.75554e-05 
4.29339e-05 
0.00010385 
2.92594e-05 
9.85488e-08 
9.49762e-05 
0.000264337 
0.00015211 
0.000214713 
0.00037051 
0.000459312 
-0.000131397 
0.000159354 
0.000249564 
-1.46735e-05 
-0.00784538 
-0.0101337 
-0.0162924 
-0.013412 
-0.0121414 
-0.00220678 
-0.00279762 
-0.00315211 
-0.00270312 
-0.0025514 
0.00498149 
0.000466537 
0.00393328 
0.00301384 
0.00546515 
0.00945695 
0.00953557 
0.000740322 
0.00340592 
0.00494259 
-0.00125355 
0.000416684 
0.000318752 
0.000131797 
8.73802e-05 
0.000283963 
0.000372809 
0.000158612 
-2.87931e-05 
0.000124096 
0.000146561 
4.71101e-05 
6.37173e-06 
-0.000108194 
-0.000123153 
-0.000130171 
-2.30818e-05 
-0.000149088 
-0.000171124 
-6.82547e-05 
-1.8354e-05 
-4.53411e-05 
-0.000118298 
-6.656e-05 
-6.94496e-05 
-0.00407706 
-0.0161576 
-0.00636633 
-0.000789722 
0.000158485 
-0.0135592 
-0.0131329 
0.000212038 
-0.00540996 
-0.00410821 
-0.00192007 
0.00468668 
9.67972e-05 
0.000345428 
-0.00188822 
7.4328e-05 
7.66291e-05 
7.85132e-05 
0.000676789 
-0.0122022 
0.000431213 
-8.34039e-05 
3.51551e-05 
0.000275396 
-0.00309275 
-0.00388582 
0.000162032 
0.000116692 
0.000111351 
-0.00145273 
0.000127256 
-4.58354e-05 
-0.00259112 
1.09152e-05 
-0.000203413 
0.0023337 
7.30265e-05 
-5.116e-05 
-2.70853e-05 
-0.00292826 
-1.30355e-05 
6.83857e-05 
-0.00298854 
-0.00353423 
9.62159e-05 
2.6674e-05 
0.000129395 
0.000401926 
-0.000161895 
-0.000906803 
0.000307193 
-0.00187362 
0.00480204 
0.000119453 
-0.00482814 
0.000355601 
9.07895e-05 
-0.0109451 
0.000282775 
-4.24719e-05 
0.00206469 
0.0051628 
0.00528887 
0.00300073 
0.00929314 
0.00047264 
0.00114224 
0.00298137 
0.00897643 
0.00339601 
0.00296867 
0.00550754 
0.00208547 
0.0092564 
0.00313517 
0.00415291 
0.00354116 
0.00483181 
0.00249679 
0.00224146 
0.00338135 
0.0026821 
0.00671474 
0.00420582 
0.00389033 
0.0036153 
0.005318 
0.00306548 
-0.000130135 
-0.000138168 
-0.000143552 
-0.000160941 
4.3085e-05 
-0.00013163 
-0.000145674 
-0.000167547 
0.00191377 
-0.000173378 
-0.000169514 
-0.000210046 
0.000515005 
-0.000236924 
-0.000172772 
-0.00016879 
-0.00016003 
-0.000179758 
-0.000176622 
-0.00017271 
-0.000214681 
-0.000188298 
-0.000159327 
-0.00019911 
-0.000135591 
0.0474359 
0.0121779 
-0.0158435 
0.0217874 
0.00507155 
0.00236065 
-0.00425208 
-0.00491459 
0.00163091 
-0.00179239 
-0.000979668 
0.00392527 
-0.00217405 
-0.00836859 
0.00590155 
0.00281603 
0.00405077 
0.00584033 
0.00586844 
0.00614301 
-0.00395988 
-0.000250898 
0.00130989 
-0.00166604 
-0.00462026 
-0.00272312 
-0.00269638 
-0.00144894 
0.00872847 
-0.000208348 
-0.000973154 
0.00168978 
-0.000299539 
-0.000123186 
-0.00229521 
-0.00122627 
2.52038e-05 
2.26906e-05 
-0.000252323 
2.2537e-05 
8.00674e-05 
0.000111475 
-0.000222428 
-0.000150344 
-0.000200847 
-0.000152395 
2.31852e-05 
-7.65735e-05 
-0.000114749 
8.2562e-05 
6.08828e-05 
6.59665e-06 
0.00555914 
0.00453751 
0.00104592 
-0.000722743 
0.00253402 
0.00171948 
0.0006189 
0.0014197 
0.00378551 
0.00367623 
0.0013482 
0.00128899 
-0.000634057 
0.00210298 
0.00244451 
0.00503271 
0.00558799 
0.00740204 
0.00302855 
0.00273481 
0.0082758 
0.0118203 
0.000358813 
0.00388254 
0.00732345 
0.00252128 
0.00162009 
-0.00163715 
0.00871465 
0.0112616 
0.00446559 
-0.000171974 
-0.000146214 
-0.000132118 
-0.000121318 
-8.59886e-05 
-7.80896e-05 
-0.000139125 
-0.000120065 
-9.97451e-05 
-0.000126572 
-0.000167541 
-9.02596e-05 
-0.000100675 
-0.000120047 
-9.75581e-05 
-6.94852e-05 
-5.07344e-05 
-0.000230405 
-0.000206956 
-0.000255169 
-0.000368377 
-0.000275112 
-0.000322034 
-0.000396953 
-0.000418173 
-0.000128333 
-0.000268184 
-0.000310718 
-0.000175135 
8.89237e-06 
6.86362e-06 
-0.00142204 
-0.000219406 
-0.000138202 
0.00571994 
-8.47374e-05 
-0.000256965 
0.00416855 
-0.00012903 
-0.000265111 
-0.000258192 
0.00662288 
-0.000301291 
0.0015862 
-0.00177607 
-6.69426e-05 
-0.0106279 
0.00516828 
0.00935057 
0.00334028 
-0.000357847 
0.0101742 
-3.72746e-05 
-0.000285337 
-0.00107782 
-0.000109841 
-6.4111e-06 
-6.60745e-05 
-0.000105839 
6.86781e-05 
-0.000191562 
0.00685585 
-0.000232966 
-0.000713755 
0.0169424 
0.0043048 
0.00175541 
-0.000315559 
0.00664187 
-2.35898e-05 
-0.000133149 
0.0109415 
0.000137166 
0.00530737 
8.65426e-05 
-0.000159173 
-0.0036318 
-0.000126423 
-0.000177789 
-0.00260586 
0.00204877 
0.00389965 
8.36753e-05 
4.96785e-06 
-0.000119787 
-0.000157013 
0.00760587 
0.00550936 
-0.000296723 
0.00127155 
-0.0015937 
-0.00162607 
0.0001198 
-0.000348653 
-0.00905478 
0.00488558 
0.00427003 
0.00933904 
0.0103453 
0.00968807 
0.00810829 
0.00623522 
0.00612542 
0.00728829 
2.55673e-05 
-0.000344402 
0.00933178 
0.00600356 
0.00894869 
0.010426 
0.00726171 
0.00898992 
0.00842086 
0.00839377 
0.00724747 
0.00736451 
0.00785415 
0.00902402 
0.00706582 
0.012014 
0.00691386 
0.00449855 
0.00693767 
-0.000390784 
-0.000324915 
-0.00034094 
-0.000395777 
-0.000410309 
-0.00043297 
-0.000406962 
-0.000403991 
-0.000206917 
-0.000340266 
-0.000358659 
-0.000346055 
-9.15521e-05 
-0.000197713 
-0.000391345 
-0.000273562 
-0.000224959 
-0.000318379 
-0.000410445 
-0.000415243 
-0.000367765 
-0.000333578 
-0.000407844 
-0.000418018 
-0.000376347 
-0.000386433 
-0.000458658 
-0.000469549 
-0.00527492 
-0.00214411 
-0.00200638 
0.00185934 
0.00137765 
0.00408826 
0.00483594 
0.00638067 
0.00357424 
-0.0079496 
0.00224118 
0.0157175 
0.00147793 
0.00272329 
0.00757593 
0.00708011 
-0.000110252 
0.00101625 
0.00235297 
0.00248099 
-0.0120381 
-0.00334673 
2.17265e-05 
0.00430168 
0.0129042 
0.00795184 
0.00267719 
0.0036586 
1.93311e-05 
-0.000171458 
-3.18915e-05 
1.27303e-05 
-7.87016e-05 
-0.000118134 
-0.000163826 
-0.000111066 
-9.45413e-05 
-3.72722e-05 
-8.03029e-05 
-8.87276e-05 
3.71481e-05 
0.000157936 
-0.000360288 
-0.000471653 
-0.000205742 
-0.000357715 
-0.000421577 
-0.00032272 
-4.6832e-05 
-0.000173721 
-0.000223946 
-0.000158528 
8.18884e-05 
-2.85438e-05 
-0.000100386 
1.7061e-05 
0.00596848 
0.00719683 
0.00480103 
0.0059794 
0.0067374 
0.00278899 
0.00359008 
0.00547179 
0.0100364 
0.00791848 
0.00652973 
-0.000200307 
-0.000764054 
-0.00101305 
0.000232592 
0.000329238 
-0.00179813 
-0.00132172 
0.00271905 
0.00940135 
0.00208698 
0.000641388 
0.00826193 
0.00496852 
0.0078016 
-0.000261565 
-0.000192463 
-0.000103151 
-7.11303e-05 
-0.000280691 
-0.000255893 
-0.000144168 
-0.000112031 
-0.000355721 
-0.000294326 
-0.000234978 
-0.000214434 
-0.000351417 
-0.000230985 
5.30652e-06 
3.08959e-05 
7.46754e-05 
3.42664e-05 
-3.72922e-05 
3.51698e-05 
5.31682e-05 
0.000276315 
3.49131e-05 
0.000194474 
0.000312571 
0.00347903 
0.0022358 
0.00513437 
0.00336912 
-0.000656989 
0.00360809 
0.000324955 
-0.000258078 
-0.000339526 
-0.0016185 
-0.00486551 
-0.000369846 
-0.000232405 
0.00336819 
-0.000305856 
0.00817251 
0.00884695 
0.00892818 
-0.0331463 
-0.0156922 
0.00274949 
-0.000391005 
-0.0020056 
2.10137e-05 
0.00182857 
0.00408398 
-0.0042991 
0.000876645 
0.00764034 
-5.05027e-05 
0.0035327 
-0.000206929 
0.00357926 
0.0315562 
-0.000241796 
0.00205735 
0.0050862 
-0.00019149 
0.0016896 
0.00356277 
0.00829211 
-0.0590551 
-0.00028347 
-0.000327993 
-0.000181742 
0.0398332 
-0.000508866 
-0.000294679 
-0.000154536 
0.00906734 
-0.000418463 
-0.000441677 
-0.00946304 
0.00210516 
0.00610712 
