ITEM: TIMESTEP
5000000
ITEM: NUMBER OF ATOMS
896
ITEM: BOX BOUNDS pp pp ff
-1.7153631884999999e+01 1.8003017117999999e+01
-1.7855467918999999e+01 1.7553981017000002e+01
-3.4618715923000003e+01 3.4618715923000003e+01
ITEM: ATOMS q 
0 
0 
0 
0 
0 
0 
0 
0 
0 
0 
0 
0 
0 
0 
0 
0 
0 
0 
0 
0 
0 
0 
0 
0 
0 
0 
0 
0 
0 
0 
0 
0 
0 
0 
0 
0 
0 
0 
0 
0 
0 
0 
0 
0 
0 
0 
0 
0 
0 
0 
0 
0 
0 
0 
0 
0 
0 
0 
0 
0 
0 
0 
0 
0 
0 
0 
0 
0 
0 
0 
0 
0 
0 
0 
0 
0 
0 
0 
0 
0 
0 
0 
0 
0 
0 
0 
0 
0 
0 
0 
0 
0 
0 
0 
0 
0 
0 
0 
0 
0 
0 
0 
0 
0 
0 
0 
0 
0 
0 
0 
0 
0 
0 
0 
0 
0 
0 
0 
0 
0 
0 
0 
0 
0 
0 
0 
0 
0 
0 
0 
0 
0 
0 
0 
0 
0 
0 
0 
0 
0 
0 
0 
0 
0 
0 
0 
0 
0 
0 
0 
0 
0 
0 
0 
0 
0 
0 
0 
0 
0 
0 
0 
0 
0 
0 
0 
0 
0 
0 
0 
0 
0 
0 
0 
0 
0 
0 
0 
0 
0 
0 
0 
0 
0 
0 
0 
0 
0 
0 
0 
0 
0 
0 
0 
0 
0 
0 
0 
0 
0 
0 
0 
0 
0 
0 
0 
0 
0 
0 
0 
0 
0 
0 
0 
0 
0 
0 
0 
0 
0 
0 
0 
0 
0 
0 
0 
0 
0 
0 
0 
0 
0 
0 
0 
0 
0 
0 
0 
0 
0 
0 
0 
0 
0 
0 
0 
0 
0 
0 
0 
0 
0 
0 
0 
0 
0 
0 
0 
0 
0 
0 
0 
0 
0 
0 
0 
0 
0 
0 
0 
0 
0 
0 
0 
0 
0 
0 
0 
0 
0 
0 
0 
0 
0 
0 
0 
0 
0 
0 
0 
0 
0 
0 
0 
0 
0 
0 
0 
0 
0 
0 
0 
0 
0 
0 
0 
0 
0 
0 
0 
0 
0 
0 
0 
0 
0 
0 
0 
0 
0 
0 
0 
0 
0 
0 
0 
0 
0 
0 
0 
0 
0 
0 
0 
0 
0 
0 
0 
0 
0 
0 
0 
0 
0 
0 
0 
0 
0 
0 
0 
0 
0 
0 
0 
0 
0 
0 
0 
0 
0 
0 
0 
0 
0 
0 
0 
0 
0 
0 
0 
0 
0 
0 
0 
0 
0 
0 
0 
0 
0 
0 
0 
0 
0 
0 
0 
0 
0 
0 
0 
0 
0 
0 
0 
0 
0 
0 
0 
0 
0 
0 
0 
0 
0 
0 
0 
0 
0 
0 
0 
0 
0 
0 
0 
0 
0 
0 
0 
0 
0 
0 
0 
0 
0 
0 
0 
0 
0 
0 
0 
0 
0 
0 
0 
0 
0 
0 
0 
0 
0 
0 
0 
0 
0 
0 
0 
0 
0 
0 
0 
0 
0 
0 
0 
0 
0 
0 
0 
0 
0 
0 
0 
0 
0 
0 
0 
0 
0 
0 
0 
0 
0 
0 
0 
0 
0 
0 
0 
0 
0 
0 
0 
0 
0 
0 
0 
0 
0 
0 
0 
0 
0 
0 
0 
0 
0 
0 
0 
0 
0 
0 
0 
0 
0 
0 
0 
0 
0 
0 
0 
0 
0 
0 
0 
0 
0 
0 
0 
0 
0 
0 
0 
0 
0 
0 
0 
0 
0 
0 
0 
0 
0 
0 
0 
0 
0 
0 
0 
0 
0 
0 
0 
0 
0 
0 
0 
0 
0 
0 
0 
0 
0 
0 
0 
0 
0 
0 
0 
0 
0 
0 
0 
0 
0 
0 
0 
0 
0 
0 
0 
0 
0 
0 
0 
0 
0 
0 
0 
0 
0 
0 
0 
0 
0 
0 
0 
0 
0 
0 
0 
0 
0 
0 
0 
0 
0 
0 
0 
0 
0 
0 
0 
0 
0 
0 
0 
0 
0 
0 
0 
0 
0 
0 
0 
0 
0 
0 
0 
0 
0 
0 
0 
0 
0 
0 
0 
0 
0 
0 
0 
0 
0 
0 
0 
0 
0 
0 
0 
0 
0 
0 
0 
0 
0 
0 
0 
0 
0 
0 
0 
0 
0 
0 
0 
0 
0 
0 
0 
0 
0 
0 
0 
0 
0 
0 
0 
0 
0 
0 
0 
0 
0 
0 
0 
0 
0 
0 
0 
0 
0 
0 
0 
0 
0 
0 
0 
0 
0 
0 
0 
0 
0 
0 
0 
0 
0 
0 
0 
0 
0 
0 
0 
0 
0 
0 
0 
0 
0 
0 
0 
0 
0 
0 
0 
0 
0 
0 
0 
0 
0 
0 
0 
0 
0 
0 
0 
0 
0 
0 
0 
0 
0 
0 
0 
0 
0 
0 
0 
0 
0 
0 
0 
0 
0 
0 
0 
0 
0 
0 
0 
0 
0 
0 
0 
0 
0 
0 
0 
0 
0 
0 
0 
0 
0 
0 
0 
0 
0 
0 
0 
0 
0 
0 
0 
0 
0 
0 
0 
0 
0 
0 
0 
0 
0 
0 
0 
0 
0 
0 
0 
0 
0 
0 
0 
0 
0 
0 
0 
0 
0 
0 
0 
0 
0 
0 
0 
0 
0 
0 
0 
0 
0 
0 
0 
0 
0 
0 
0 
0 
0 
0 
0 
0 
0 
0 
0 
0 
0 
0 
0 
0 
0 
0 
0 
0 
0 
0 
0 
0 
0 
0 
0 
0 
0 
0 
0 
0 
0 
0 
0 
0 
0 
0 
0 
0 
0 
0 
0 
0 
0 
0 
0 
0 
0 
0 
0 
0 
0 
0 
0 
0 
0 
0 
0 
0 
0 
0 
0 
0 
0 
0 
0 
0 
0 
0 
0 
0 
0 
0 
0 
0 
0 
0 
0 
0 
0 
ITEM: TIMESTEP
6000000
ITEM: NUMBER OF ATOMS
896
ITEM: BOX BOUNDS pp pp ff
-1.7153631884999999e+01 1.8003017117999999e+01
-1.7855467918999999e+01 1.7553981017000002e+01
-3.4618715923000003e+01 3.4618715923000003e+01
ITEM: ATOMS q 
-0.0031612 
-7.93596e-05 
0.00319794 
0.00373836 
0.00307106 
-0.000744249 
0.00157027 
-0.00079693 
-0.00268803 
0.00260725 
-0.00205326 
-0.00551677 
0.005871 
0.00394455 
0.0101797 
0.00886689 
-0.000920352 
0.00390018 
0.00512884 
0.00382865 
-0.0173204 
-0.0114983 
-0.00556153 
-0.00454945 
-0.000106067 
-0.000159478 
-0.000237773 
-0.000207567 
-5.42221e-05 
-7.32312e-05 
-0.000104091 
4.27082e-05 
1.95911e-05 
5.52809e-05 
0.000177503 
0.000279596 
-0.000271981 
-0.000302702 
-0.000295162 
-1.67982e-05 
-0.000235628 
-0.0002979 
0.000195651 
6.82001e-05 
-0.00011909 
0.000962528 
-0.00288849 
-0.000483139 
0.00687095 
0.0117526 
0.00598225 
0.00550623 
0.00330266 
0.00799389 
0.00711179 
0.00466822 
0.00408391 
0.00288813 
0.00110341 
0.00191806 
0.00161053 
0.00349755 
-0.0101756 
-0.00537819 
0.00214124 
0.00278842 
0.00244479 
0.00231627 
0.00203125 
0.000269505 
0.000172925 
-0.00421612 
-0.000937689 
0.00233964 
0.000177752 
0.00556393 
0.00651131 
-0.000182497 
6.38371e-06 
0.000103584 
-3.3733e-05 
-0.000328838 
-0.000222459 
-0.000174211 
-0.000147379 
-0.000259504 
-0.00023678 
-0.000172438 
-0.000139312 
-0.000183757 
-0.000159832 
-0.00014974 
-0.000138807 
-1.94579e-06 
7.37721e-05 
-8.06692e-05 
-0.000105808 
-0.000114866 
-0.00017363 
-0.000133884 
-0.000110825 
-0.000212276 
-0.00017522 
-0.000194501 
-0.00025385 
0.00827752 
0.0122101 
0.00516751 
0.00353172 
0.00619323 
0.00669507 
0.00475733 
0.00562885 
0.00294859 
0.00506076 
0.0075113 
0.00598245 
0.00441385 
0.00421926 
0.00494312 
0.00460244 
0.00610597 
0.00569589 
0.00670321 
0.00844634 
0.00629735 
0.00717894 
0.007922 
0.00795783 
0.00489548 
0.00823356 
0.00558691 
-0.000343918 
-0.000271844 
-0.000144664 
-0.000327213 
-0.000302497 
-0.000246817 
-0.000272854 
-0.00032403 
-0.000323545 
-0.000312442 
-0.000352589 
-0.000264273 
-0.000319214 
-0.000347743 
-0.000338541 
-0.000283645 
-0.000253039 
-0.000288296 
-0.000319856 
-0.000378775 
-0.00035065 
-0.000347648 
-0.000377173 
-0.000359482 
-0.000399487 
-0.000390266 
-0.000338039 
-8.58934e-05 
0.00726455 
0.00360727 
-0.00029619 
0.00501332 
0.00396292 
-0.000257337 
-0.000197477 
-0.000247682 
0.00230769 
0.00672273 
0.00290048 
-4.94293e-05 
-0.000277014 
9.25441e-05 
-0.000301458 
-0.000193492 
0.00382567 
-0.00347833 
0.00341505 
4.66246e-06 
0.00181888 
0.0075377 
0.00417598 
-0.000289093 
-0.000328774 
0.00559585 
0.00722455 
1.57386e-05 
-0.00032796 
-0.000344831 
-0.000251875 
0.00191262 
0.00214435 
0.00431262 
0.00880657 
-0.00507104 
1.1897e-05 
-0.00896846 
-0.000139983 
-0.00018527 
-0.000200885 
-0.000683287 
0.00664297 
-0.00240057 
-0.000223897 
0.0064784 
-0.000356034 
-9.231e-05 
0.0061413 
-0.0003197 
-0.000284786 
0.00267275 
-0.00023729 
0.000144285 
-0.00016978 
-0.000304865 
-3.48286e-05 
0.00902243 
0.00506207 
0.00221776 
0.00529901 
-0.00894105 
-0.000241918 
0.00396572 
0.000193408 
-0.0100814 
-0.0002145 
0.00882626 
-0.000228171 
-0.000253183 
0.00871 
0.0142227 
0.00574858 
0.00261726 
0.00538602 
0.00402321 
0.00542329 
0.00667038 
0.00666516 
0.00337471 
0.00115564 
0.00459234 
0.00749143 
0.00438668 
0.00324768 
0.00306508 
0.0036786 
0.00146117 
0.00419324 
0.00357128 
0.000614282 
0.00203695 
0.00269473 
0.00297858 
0.00501675 
-0.000302878 
-0.000282401 
-0.000211003 
-0.00020539 
-0.00032809 
-0.000280181 
-0.000235286 
-0.000232206 
-0.000286826 
-0.000303676 
-0.00024488 
-0.000195005 
-0.000216354 
-0.000238676 
-0.000211202 
-0.000189922 
-0.000196102 
-0.000209117 
-0.000199098 
-0.000224297 
-0.000176835 
-0.000187116 
-0.000227389 
-0.000297522 
0.00402555 
0.00305979 
0.000908319 
0.00386735 
-0.000291718 
-0.00206497 
-0.00277541 
-0.000270597 
0.0041092 
-0.00538745 
-0.00308979 
-0.0039809 
-0.00228614 
0.00204935 
0.00329406 
0.00634424 
-0.00724885 
-0.010351 
-0.00218732 
-0.0077726 
0.00642698 
-0.00144532 
-0.00775835 
-0.0055236 
-0.0015596 
0.00526879 
0.00040186 
-0.00320549 
0.00536234 
-0.00243991 
-0.0109203 
-0.00299332 
-0.000153886 
-0.000187552 
-0.000141689 
-2.11268e-06 
-4.11274e-05 
-6.09936e-05 
4.76019e-05 
0.000110296 
4.29214e-05 
-2.98141e-06 
1.86265e-05 
-4.73965e-05 
0.000130797 
5.70156e-05 
-2.90452e-05 
-2.02166e-05 
-3.11269e-05 
-0.00016778 
-0.00025078 
-0.000208703 
0.00013594 
6.03598e-05 
-1.73467e-05 
0.000104991 
4.68669e-05 
0.000144891 
0.000176016 
0.000175428 
-4.72426e-05 
2.01094e-05 
8.56365e-05 
-4.04809e-05 
0.00371935 
0.00390095 
0.000691738 
0.002246 
0.00392029 
0.00725546 
0.0061016 
0.00836413 
0.00863418 
-0.000471111 
-0.00107072 
-0.0013056 
-0.00466039 
0.00444954 
-0.000428772 
-0.00190814 
0.00184408 
0.00606039 
0.00539729 
0.00129555 
-0.00506678 
-0.000172853 
-0.000138435 
-4.23882e-05 
-5.46817e-05 
-0.00026541 
-0.000211369 
-0.000167597 
-0.000211669 
-0.000370658 
-0.000348788 
-0.000318309 
-0.000305045 
-4.50655e-06 
2.28048e-05 
2.27954e-06 
-3.13352e-05 
-0.000118947 
-1.92734e-05 
-9.49701e-06 
-5.35221e-05 
-0.00017119 
-0.000107204 
-4.25119e-05 
-8.0163e-05 
0.00932399 
-0.000122189 
0.00296759 
-8.59991e-05 
0.00109454 
0.00274628 
0.0115575 
-0.000260123 
-0.00032692 
9.93024e-05 
0.00521811 
0.0123556 
0.000139309 
0.00163924 
0.00547117 
-0.000147931 
-0.00461466 
-0.000378058 
-5.72522e-05 
0.00711764 
-0.000186802 
-8.28441e-05 
-0.000238804 
-0.00156868 
0.00241874 
-0.00017604 
-0.00133544 
4.15542e-05 
-0.0052795 
-0.00659988 
0.000147878 
-0.000116467 
-0.000125072 
-9.40304e-05 
-5.82058e-05 
-0.000127729 
0.000174397 
-2.04974e-05 
0.00472142 
0.00269315 
-6.81393e-05 
-0.00443128 
-0.000160706 
-0.00750629 
-0.000160217 
-5.93183e-06 
-0.000124236 
-4.83423e-05 
-0.00295783 
-0.000705375 
-7.87108e-05 
-0.000110319 
0.00637181 
-0.000125253 
0.0022691 
0.00498208 
-5.48183e-05 
-0.000200973 
0.00853682 
-0.000118796 
-0.000747499 
0.00264621 
0.00237101 
0.00319119 
-3.76102e-05 
-0.000940521 
0.00373219 
0.00410232 
0.0115948 
0.00269845 
0.00334852 
0.00469736 
0.00711589 
0.00555795 
0.00229553 
0.00141484 
0.00167852 
-0.000643627 
0.00315004 
-0.00157377 
-0.00566343 
0.000559636 
0.00315827 
0.000186885 
0.000158956 
0.00104406 
0.00209782 
0.000793835 
-0.00013138 
-0.000142887 
-0.000140473 
-0.000111297 
7.03624e-05 
-0.000127531 
-0.000112822 
-0.000106044 
0.00179857 
-0.000124938 
-0.000107311 
-9.31052e-05 
0.000618522 
-1.61306e-05 
-8.43033e-05 
-0.000156144 
-0.000198265 
-7.05947e-05 
-4.74433e-05 
-0.000108798 
-0.000101417 
-8.40758e-05 
-9.15169e-05 
-0.000130558 
-0.000125437 
0.0540136 
0.00133068 
0.0312881 
0.0263293 
0.00170787 
0.0045039 
0.0033515 
0.00469747 
0.00642877 
0.0100589 
0.00703776 
0.00461995 
0.00857071 
0.00725105 
0.00122463 
0.00396955 
0.00480091 
0.00260483 
0.00786171 
0.00873725 
0.00426539 
0.00164588 
-0.00539566 
-0.00616344 
0.00521167 
0.0024738 
-0.00114208 
0.00721612 
0.00898022 
1.40106e-05 
0.00779425 
0.00274016 
-5.06968e-05 
-2.92085e-05 
0.000971245 
0.000267663 
-8.34343e-05 
-0.000178333 
-0.000155896 
-0.000266292 
-0.000218006 
-0.000244874 
-0.000155673 
-0.000171187 
-0.000217669 
-0.000239013 
-0.000115807 
-0.00012428 
-0.000218458 
-0.00022025 
-0.000140264 
-0.000208105 
0.00313268 
0.00452239 
0.00482547 
0.00233256 
0.00586718 
0.00303306 
0.00250446 
-0.00112921 
0.000267028 
0.00269349 
-0.00280104 
-0.00144056 
-0.000885911 
-0.000444593 
0.00390499 
0.00403659 
-0.00508845 
-0.00352782 
0.000241473 
0.00151384 
-0.00424895 
0.00607301 
0.000594044 
0.00132268 
0.00579136 
0.00428492 
0.00238768 
0.00410464 
-0.00271001 
0.00719529 
0.00389181 
-0.000168972 
-0.000133473 
-9.20525e-05 
-0.000195059 
-0.000263397 
-0.000237669 
-0.000145316 
-0.000113533 
-0.000139758 
-0.000117836 
-8.9149e-05 
-7.35656e-05 
-5.77796e-05 
-7.17346e-05 
-0.000122973 
-9.89823e-05 
-0.000141317 
-2.52295e-05 
6.36341e-05 
0.000150539 
3.85759e-05 
-0.000131105 
-4.27223e-05 
-8.46258e-05 
-0.00022272 
-0.000200009 
-0.000209083 
-0.000247737 
-0.00025632 
-0.000236843 
-0.000245004 
0.00265987 
0.00100182 
0.00847596 
-0.000228079 
-0.000197117 
-0.000238308 
-0.000257161 
-4.19513e-05 
-0.000326604 
0.00542927 
-0.000181754 
0.010706 
0.0095397 
-0.000174004 
0.00641656 
0.00296498 
-0.000303053 
0.00233609 
-0.000261982 
0.0072106 
-0.000293947 
0.00779486 
-0.000257647 
0.00282589 
-0.000269984 
-0.000165437 
-0.000290459 
-0.000135171 
0.00593886 
0.00143857 
-0.000539845 
0.00314344 
0.00377373 
-0.000175008 
-0.00026981 
-0.000286659 
0.00301865 
0.00614976 
0.00535833 
0.00524804 
-0.00101986 
0.00668709 
-0.000248597 
-0.000211562 
0.00623491 
0.00356918 
-0.0002936 
-0.000228165 
-0.000219102 
0.00429944 
0.00632958 
-0.000192756 
-0.000251549 
-0.000284135 
-0.000307558 
-0.000235529 
-0.000296109 
-0.000268227 
0.0026408 
0.00763791 
-0.000156761 
0.00387229 
0.00235383 
-0.0002782 
-0.00913779 
-0.00193949 
0.00678105 
0.00225369 
0.00461765 
0.00489367 
0.00578938 
0.00245599 
0.00474292 
0.00292338 
0.00438028 
0.00169694 
-0.00429952 
0.00209505 
0.00554185 
0.00782817 
0.00795543 
0.00921427 
0.0075018 
0.00505338 
0.00758517 
0.00745031 
0.0087909 
0.0083053 
0.00926943 
0.00597576 
0.00721911 
0.00446124 
-5.26414e-05 
1.53449e-05 
-5.5779e-05 
-0.000186039 
-0.000237825 
-0.000212775 
-0.000270683 
-0.000352251 
-0.000270854 
-0.000280642 
-0.000331912 
-0.000370655 
-0.000306969 
-0.00036213 
-0.000226065 
-0.000116631 
-0.000167652 
-0.000296051 
-0.000386167 
-0.000358284 
-0.000358855 
-0.000380032 
-0.000416986 
-0.000416229 
-0.000398457 
-0.000371254 
-0.000414157 
-0.000382542 
0.0057949 
0.00409119 
0.00884782 
0.0154544 
0.00341468 
0.00819941 
3.95805e-05 
0.00229028 
0.000217571 
0.000197762 
0.00985328 
0.00889189 
0.00519739 
0.00531724 
0.00182856 
-0.00500546 
0.000900494 
-0.000580304 
-0.00497223 
0.00205483 
0.00406497 
0.0029812 
0.00410715 
0.00826924 
0.0102901 
-0.0024294 
0.00417631 
0.00732436 
-0.000307089 
-0.000380717 
-0.000323879 
-0.000379879 
-0.00038241 
-0.000298649 
-0.000193411 
-0.000297846 
-0.000243863 
-0.000136513 
-0.000195495 
-0.000135789 
-0.000141267 
-0.000171361 
-0.000361009 
-0.000294847 
-0.000151546 
-0.00021996 
-0.000162634 
-3.23139e-05 
-0.000113132 
-5.55651e-05 
-3.36203e-05 
-0.000117987 
-0.000203218 
-0.000171985 
-0.000203405 
-0.000245993 
0.00326061 
0.010147 
0.00976485 
0.00785962 
0.0052995 
0.00640322 
0.00510025 
0.00584073 
0.00686539 
0.00553921 
0.00647648 
0.00697164 
0.00361716 
-0.00218814 
-0.000676643 
0.00694506 
0.00816348 
0.00700976 
0.00817358 
0.00902594 
0.00530799 
0.00565513 
0.00895238 
0.00611966 
-0.00130305 
-0.000326987 
-0.000285313 
-0.000266365 
-0.000323248 
-0.000355069 
-0.000367153 
-0.000370576 
-0.00034482 
-0.0003442 
-0.000351442 
-0.000336653 
-0.000262251 
-0.000311879 
-0.000228112 
-0.000219099 
-0.000107354 
-6.6714e-05 
-8.80648e-05 
-0.000282216 
-0.000222934 
-0.000104028 
0.000182289 
6.2857e-06 
-1.70236e-05 
0.000149039 
0.00300689 
0.000920863 
0.00526787 
-0.000232384 
0.00117011 
0.00877546 
-0.00562379 
-6.05628e-05 
-4.56465e-05 
0.00944571 
0.0152755 
2.9045e-05 
-3.23538e-05 
0.00633807 
0.0180668 
-0.000202297 
0.0054329 
-0.00576884 
-0.00228079 
-0.00024897 
0.000144603 
-0.00466546 
-8.94992e-05 
-0.000160587 
7.02714e-06 
-0.00192591 
0.00152971 
-0.000196676 
0.00211996 
-0.0957338 
-9.82242e-05 
0.00186569 
-0.000212193 
-0.00322547 
0.00344347 
-0.00392691 
1.26027e-05 
0.00408921 
0.00582415 
-0.0148249 
0.00883565 
0.00440871 
-0.00123051 
-0.000151758 
-0.0736853 
-9.16932e-05 
6.48712e-05 
-0.000131587 
-0.00152202 
0.00228728 
-0.00357045 
0.00659137 
-9.52088e-05 
-0.000317992 
-0.0133805 
ITEM: TIMESTEP
7000000
ITEM: NUMBER OF ATOMS
896
ITEM: BOX BOUNDS pp pp ff
-1.7153631884999999e+01 1.8003017117999999e+01
-1.7855467918999999e+01 1.7553981017000002e+01
-3.4618715923000003e+01 3.4618715923000003e+01
ITEM: ATOMS q 
-0.0152078 
-0.00843648 
0.00238226 
0.0022191 
-0.0117864 
-0.0109942 
-0.00257258 
0.00325791 
0.00638779 
0.00143418 
0.00303355 
0.00453237 
0.00584744 
0.00501652 
0.00515466 
0.0024565 
0.00615529 
0.00435011 
0.0015902 
-0.00120081 
0.00706399 
0.00542922 
0.000221157 
0.00504598 
0.000206098 
9.80522e-05 
-3.05625e-05 
-0.000134842 
8.08572e-05 
6.05352e-05 
-0.000108165 
-0.000179507 
-0.000131903 
-0.000112077 
-0.000169183 
-0.000222584 
-0.00014127 
-0.000104897 
-2.22368e-05 
-0.000161862 
-0.000113917 
-5.42895e-05 
-0.000214247 
-0.000148545 
-0.000106079 
0.00551412 
0.00358295 
0.00239015 
-0.000389673 
0.00139403 
0.00149773 
-0.00298172 
-0.00902212 
-0.00167241 
-0.00255196 
-0.00205274 
0.000479334 
0.014345 
0.000929583 
0.00335203 
0.00622782 
-0.000126399 
0.0082611 
0.00696064 
-3.44948e-05 
-0.00559383 
-0.00124738 
0.0039472 
0.00637795 
0.00431685 
0.00425906 
0.0075902 
0.00577973 
0.00453332 
0.00425501 
0.00136693 
-0.000920575 
-4.10817e-05 
-0.000114726 
-0.000158688 
-0.000103728 
0.000105305 
5.13126e-05 
2.72137e-05 
2.70282e-05 
-4.59718e-05 
5.90507e-05 
9.78572e-07 
-0.000130184 
-0.000351038 
-0.000167893 
-0.000179305 
-0.000222768 
-0.000149127 
-0.000206833 
-0.000165486 
-0.000106889 
-0.000131362 
-0.000157505 
-0.000156751 
-0.000170154 
-0.000120813 
-0.00011472 
-9.36481e-05 
3.56497e-05 
-0.00171198 
-9.3696e-05 
-0.00285467 
-0.00070482 
0.00144679 
0.00011937 
0.000539143 
0.00165514 
0.00189401 
0.000969046 
0.00016172 
0.00141535 
0.00286838 
0.00557415 
-0.00231956 
-0.0165298 
0.00265231 
0.00169761 
-0.00462219 
-0.00141709 
0.00251108 
0.00322356 
0.00668904 
0.00626784 
-0.0212271 
-0.00138309 
0.00163012 
-2.01602e-05 
-5.6661e-05 
-0.00013843 
-1.0129e-05 
1.86015e-05 
-2.79807e-05 
-2.40596e-05 
-5.31093e-05 
-3.99184e-05 
-3.69245e-05 
-8.18431e-05 
-0.00012114 
-8.38663e-05 
-0.000112222 
-0.000136419 
0.000106207 
7.22131e-05 
0.000108262 
0.000295332 
-4.0777e-05 
0.000146562 
0.000238529 
8.18061e-05 
-0.000161266 
-0.000120236 
-6.88283e-05 
-0.000138197 
-0.000261318 
-0.000219315 
3.95773e-05 
0.000199835 
0.00674754 
-0.000117878 
0.000201241 
0.00483727 
0.000184552 
-4.09573e-05 
-0.000284428 
0.00133203 
0.00448796 
7.72375e-05 
0.00382625 
-0.000308798 
0.00445965 
-0.000136849 
-0.0053371 
0.00358072 
0.00288234 
-0.000229771 
4.78409e-05 
0.00295232 
0.00647341 
-2.34773e-05 
0.00326701 
-0.000248716 
-0.000310971 
0.00486139 
0.00386293 
-0.000278063 
0.00409978 
-0.000131383 
-0.00559305 
-0.00217047 
-0.0002845 
-2.63612e-06 
-5.64865e-05 
0.00635913 
-0.00642499 
-0.000115029 
0.00868473 
-0.000284521 
-0.000195263 
0.000974989 
-3.42545e-05 
-0.00014463 
-1.05152e-05 
0.0014479 
-0.000180485 
-0.00619159 
0.0113852 
0.00314322 
-0.000177965 
0.00585239 
-0.00690398 
0.00350996 
-0.000102536 
-0.000145677 
0.00727714 
0.00551925 
0.00286343 
1.40015e-05 
-0.000198048 
-0.000126782 
-0.000616142 
0.000308558 
-0.00161044 
-0.000177056 
0.00181406 
-0.00233816 
-0.00244822 
0.0107638 
0.00531005 
-0.00374631 
-0.00016605 
-0.00972512 
0.00350673 
-0.00359817 
-0.00120313 
0.00624348 
0.0078636 
-0.00387331 
-0.00276465 
-0.0135643 
-0.00148373 
-0.00173268 
-0.000490274 
-0.00182863 
-0.00830603 
0.00087488 
0.00376175 
-0.000993674 
0.000360594 
0.00395375 
0.000100201 
-0.000105343 
-0.000178142 
-5.94475e-05 
0.000138832 
0.000119378 
8.84482e-05 
0.000202817 
-7.97848e-05 
6.56064e-05 
0.000123422 
-1.99529e-05 
-1.04672e-05 
-7.70421e-05 
-3.79962e-05 
1.00171e-06 
0.000116756 
5.72746e-05 
1.86432e-05 
-1.57796e-05 
-7.02455e-05 
1.20841e-05 
-6.83847e-05 
-0.000201929 
0.00458027 
0.00551742 
0.00683664 
0.00279155 
0.00587249 
0.00648444 
0.00808017 
0.00235397 
-0.000446982 
0.00162831 
0.00124405 
0.00327101 
0.00685678 
0.00661286 
0.00653366 
0.00700752 
0.00600686 
0.00792181 
0.00906545 
0.00749375 
0.00213014 
0.0087837 
0.0131701 
0.00707404 
-0.000193864 
0.00112544 
0.00426841 
0.00945824 
0.00792728 
0.00465454 
0.00736895 
0.00844624 
-0.000246333 
-0.000177083 
-0.000171896 
-0.000293385 
-0.000271613 
-0.000276393 
-0.000312013 
-0.00033775 
-0.000210053 
-0.000232149 
-0.000253451 
-0.000204033 
-0.000258566 
-0.000164998 
-0.000139156 
-0.000136611 
-0.000319769 
-0.000257989 
-0.00030305 
-0.000371598 
-0.00038706 
-0.000390068 
-0.000384031 
-0.000382283 
-0.000293397 
-0.000404728 
-0.000393563 
-0.000390254 
-0.000197428 
-0.000285792 
-0.000376008 
-0.000382263 
0.000197411 
0.00479327 
0.00455305 
0.000498001 
0.00194721 
-0.00465529 
0.00115269 
-0.00741014 
0.0030342 
0.00356297 
0.00561048 
0.00201609 
-0.00363557 
-0.00154412 
-6.70351e-05 
-0.00334692 
-0.0159322 
0.0105368 
0.00368281 
-0.00382151 
0.007725 
-5.79195e-05 
-9.63208e-05 
-0.000106796 
-8.02645e-05 
3.24422e-06 
-2.80493e-05 
-2.41753e-05 
-7.79295e-06 
-0.000208659 
-3.77086e-05 
-8.77282e-05 
-0.000203307 
-4.61863e-05 
-0.000139293 
-0.000161651 
-8.81407e-06 
4.20315e-05 
4.8867e-05 
4.47681e-07 
6.63491e-05 
-0.000140526 
7.14228e-06 
6.49063e-06 
-2.44295e-05 
0.00106933 
-0.00189514 
0.00235888 
0.00262874 
0.00637279 
-0.000200317 
-2.2685e-05 
-3.3006e-05 
-0.000240505 
-0.000391178 
-0.000105504 
0.0017413 
-8.91196e-05 
0.00736971 
-9.23418e-05 
-0.000149526 
-0.00994543 
0.00948776 
-0.000334901 
0.0114022 
-0.000362401 
0.00890819 
-0.00655877 
-9.77763e-05 
0.00313566 
-0.000137901 
-0.000148389 
-0.000170071 
-0.000339208 
0.00728367 
0.012343 
0.00866132 
-0.000351426 
0.0095339 
-0.000354404 
-2.67669e-07 
3.76719e-05 
0.006578 
-0.0011349 
-0.000256142 
0.0066121 
-0.000100193 
0.0109116 
-0.000366171 
-6.05256e-05 
-0.000349074 
0.00553886 
0.00273015 
0.00905214 
-1.17804e-05 
-0.000118101 
-9.82993e-05 
0.00349857 
-6.53819e-05 
5.54343e-05 
1.76664e-05 
0.0140397 
-0.000248275 
-0.000187921 
0.00919682 
0.0116967 
0.0135534 
0.00725129 
0.0102417 
0.00508432 
0.00222398 
0.0103964 
0.012707 
0.0104574 
0.00362865 
0.00537298 
0.0040794 
0.0138365 
-0.00215824 
0.00678196 
0.00197845 
-0.000722251 
0.00249662 
0.0125237 
0.00899503 
0.00466139 
0.00458727 
0.00611458 
0.00566883 
0.00284797 
0.0024841 
0.00230949 
0.00603015 
-0.000474763 
-0.000383578 
-0.000311912 
-0.000332355 
-0.000423735 
-0.000411038 
-0.000416329 
-0.000398776 
-0.000404953 
-0.000348323 
-0.000351508 
-0.000263678 
-0.000595971 
-0.000176322 
-0.000212509 
-7.24742e-05 
0.000109178 
-0.000299892 
-0.000223075 
-0.000110966 
-0.000249979 
-0.000246069 
-0.000212197 
-0.000241964 
-0.000307499 
-0.0751648 
-0.00121073 
-0.0184061 
-0.0176036 
0.00105499 
-0.00377614 
-0.00228028 
0.00103919 
-0.00903637 
-0.0314206 
-0.00751297 
-0.00483215 
-0.0161495 
-0.00140241 
0.000922575 
0.0053537 
-0.00840142 
0.0011362 
0.00242738 
0.00168809 
-0.0133899 
-0.012669 
-0.00192913 
3.74925e-05 
0.00215552 
-0.000154204 
0.00066546 
0.00255905 
0.00193024 
-8.39344e-05 
0.00540983 
0.000955853 
-4.15712e-05 
0.000263233 
0.001184 
0.000550982 
0.000477813 
0.000467052 
0.000311408 
0.000414087 
0.000378034 
8.95664e-05 
-0.000151132 
0.000109025 
-0.000124883 
-0.000286008 
0.000201074 
0.00010268 
-0.000108068 
-8.9032e-06 
2.76595e-05 
-7.46161e-05 
-0.00072156 
-0.0143399 
-0.0241798 
-0.00638064 
0.00162014 
0.00185241 
0.000631565 
0.00671081 
0.00327599 
0.00175711 
0.0068618 
0.00800111 
0.0104874 
0.0111634 
-0.000877206 
0.00144238 
0.0048233 
0.00402316 
0.00602321 
0.00142288 
0.000874284 
0.0017172 
0.00829522 
0.00612328 
0.00120606 
0.000960528 
0.00612823 
0.00209763 
0.0088932 
0.00754981 
0.00539166 
8.56671e-05 
-0.000151081 
-0.000278528 
0.000209674 
0.000374414 
0.000170647 
2.03691e-05 
-0.000153696 
-1.12343e-05 
-4.236e-05 
-0.000202489 
-0.000343834 
-0.000275057 
-0.000283059 
-0.000321001 
-0.000433373 
-0.000382432 
-0.000129737 
-0.000199615 
-0.000306004 
-0.000335811 
-0.000180412 
-0.000167604 
-0.000259462 
-0.000286918 
-0.000238457 
-0.000197446 
-0.00022723 
-0.000258425 
-0.000204457 
-0.000209378 
-0.000345764 
-0.000259433 
0.00616031 
-0.000135479 
0.00507703 
0.0123663 
-6.48469e-05 
0.00249136 
0.00550084 
-0.000166958 
-0.000191077 
-0.00035496 
-0.000441847 
-0.000187543 
0.00534007 
0.00670545 
0.00402159 
0.00618192 
-0.000328183 
-0.000152543 
0.0109788 
0.000655536 
-0.000394837 
0.00361273 
0.00793505 
-0.000274687 
0.00427733 
0.00629178 
-0.000164697 
0.00559252 
0.00173919 
0.000905537 
-0.00026488 
0.00396315 
0.00295448 
-0.000295815 
0.00268923 
-0.000264367 
-0.000215661 
-0.000149878 
0.00640991 
-5.29816e-05 
-0.000216222 
-0.000219179 
-0.000430752 
-0.000175726 
0.00563844 
0.000536554 
-0.000189334 
-0.000206636 
0.00346191 
-0.000117066 
0.0110438 
0.00746843 
0.011011 
-0.000225474 
0.00470473 
-0.000234949 
-0.000296148 
0.00231588 
0.00273274 
-0.000212032 
-0.000242817 
0.00734919 
0.0114788 
0.0064518 
0.00568128 
0.0079581 
0.00478167 
0.00392139 
0.00724504 
0.00560631 
0.00505817 
0.00903708 
0.00545249 
0.00555242 
-0.00105062 
0.00231299 
0.00610856 
0.00372837 
0.00479362 
0.00698295 
0.00398491 
0.00445584 
0.00481464 
0.00308632 
0.000901536 
0.00175452 
-0.00337323 
0.00726838 
0.00524338 
0.000536218 
-0.000339618 
-0.000285518 
-0.000194067 
-0.000227812 
-0.000293456 
-0.000289035 
-0.000259057 
-0.000230536 
-0.000271582 
-0.000261559 
-0.000219452 
-0.000154025 
-0.000173805 
-8.46723e-05 
-0.000229629 
-0.000246304 
-0.000332283 
-0.000332705 
-0.000230694 
-0.000272928 
-0.000291759 
-0.000259413 
-9.06355e-05 
-0.000168351 
-0.00017648 
-0.00012001 
2.19893e-05 
-2.15578e-05 
-0.00576643 
0.00505158 
0.00052977 
-6.319e-05 
0.00345566 
0.00497927 
0.0122806 
0.00963193 
0.0136003 
0.0137668 
-0.00408133 
-0.00746342 
-0.00145732 
0.000186423 
-0.00211384 
-0.0123638 
0.00841337 
-0.00302309 
-0.0108807 
0.00182324 
0.0116057 
0.0110999 
0.00620456 
0.00284366 
0.0032708 
-0.00494243 
0.00124846 
0.00174455 
-0.000143969 
3.45526e-05 
-0.000156428 
-7.32883e-05 
6.1276e-06 
3.32707e-06 
-0.000341559 
-0.000245235 
-0.000173672 
-0.000278497 
-0.000285939 
-0.000418643 
-0.000415241 
-0.000363364 
7.65755e-05 
1.22851e-05 
0.000136196 
0.000166016 
0.000150464 
0.000131792 
-0.000120432 
0.000123419 
9.60116e-05 
-5.26392e-05 
-0.000249393 
-0.000195553 
-0.000111271 
-0.000123859 
0.00757706 
0.00679771 
0.00531302 
0.00817409 
0.00532547 
0.00185176 
0.00536871 
0.0047299 
0.00103535 
0.00141992 
0.00159152 
0.00420749 
0.00278397 
0.00304624 
0.00805978 
0.00360462 
0.00453182 
0.00584401 
0.00846186 
0.000150485 
0.00389796 
0.00503257 
0.00724375 
-0.00523878 
-0.00496661 
-0.000316843 
-0.00029649 
-0.000215121 
-0.000225036 
-0.000242956 
-0.000267643 
-0.000238814 
-0.000193745 
-0.000125134 
-0.000174621 
-0.000147042 
5.70453e-05 
-5.18732e-05 
0.000106023 
-0.000188672 
-0.000108122 
-4.87528e-06 
-0.000125531 
-0.000192168 
-0.000181854 
-7.07606e-05 
-0.000123309 
7.25022e-05 
1.66361e-05 
0.000101258 
0.000222059 
0.00302184 
0.00286852 
9.67445e-06 
-0.000270161 
-0.000165879 
-9.65701e-05 
0.0473118 
0.000642975 
0.00758338 
0.000162406 
0.0293311 
0.000917555 
0.00401588 
0.0064745 
-0.000170953 
-1.58326e-05 
-0.00116091 
0.0174138 
0.00214418 
-0.00018959 
0.000680898 
0.00128306 
-2.28607e-05 
-7.81552e-05 
7.61243e-05 
-5.37121e-05 
0.00534716 
-3.45344e-05 
0.00172168 
0.00235454 
0.00202427 
3.55751e-05 
-0.0574572 
0.00583498 
0.0034103 
-9.89198e-05 
0.00656564 
0.0141728 
-0.000129458 
-1.40832e-05 
0.000297514 
0.0113826 
-2.72674e-07 
0.00228657 
0.000267482 
-0.00328699 
0.000262141 
0.00018535 
-0.00566982 
-6.70219e-05 
0.0270786 
0.00120335 
0.00153359 
0.00308634 
