ITEM: TIMESTEP
5000000
ITEM: NUMBER OF ATOMS
896
ITEM: BOX BOUNDS pp pp ff
-1.7153631884999999e+01 1.8003017117999999e+01
-1.7855467918999999e+01 1.7553981017000002e+01
-3.4618715923000003e+01 3.4618715923000003e+01
ITEM: ATOMS q 
0 
0 
0 
0 
0 
0 
0 
0 
0 
0 
0 
0 
0 
0 
0 
0 
0 
0 
0 
0 
0 
0 
0 
0 
0 
0 
0 
0 
0 
0 
0 
0 
0 
0 
0 
0 
0 
0 
0 
0 
0 
0 
0 
0 
0 
0 
0 
0 
0 
0 
0 
0 
0 
0 
0 
0 
0 
0 
0 
0 
0 
0 
0 
0 
0 
0 
0 
0 
0 
0 
0 
0 
0 
0 
0 
0 
0 
0 
0 
0 
0 
0 
0 
0 
0 
0 
0 
0 
0 
0 
0 
0 
0 
0 
0 
0 
0 
0 
0 
0 
0 
0 
0 
0 
0 
0 
0 
0 
0 
0 
0 
0 
0 
0 
0 
0 
0 
0 
0 
0 
0 
0 
0 
0 
0 
0 
0 
0 
0 
0 
0 
0 
0 
0 
0 
0 
0 
0 
0 
0 
0 
0 
0 
0 
0 
0 
0 
0 
0 
0 
0 
0 
0 
0 
0 
0 
0 
0 
0 
0 
0 
0 
0 
0 
0 
0 
0 
0 
0 
0 
0 
0 
0 
0 
0 
0 
0 
0 
0 
0 
0 
0 
0 
0 
0 
0 
0 
0 
0 
0 
0 
0 
0 
0 
0 
0 
0 
0 
0 
0 
0 
0 
0 
0 
0 
0 
0 
0 
0 
0 
0 
0 
0 
0 
0 
0 
0 
0 
0 
0 
0 
0 
0 
0 
0 
0 
0 
0 
0 
0 
0 
0 
0 
0 
0 
0 
0 
0 
0 
0 
0 
0 
0 
0 
0 
0 
0 
0 
0 
0 
0 
0 
0 
0 
0 
0 
0 
0 
0 
0 
0 
0 
0 
0 
0 
0 
0 
0 
0 
0 
0 
0 
0 
0 
0 
0 
0 
0 
0 
0 
0 
0 
0 
0 
0 
0 
0 
0 
0 
0 
0 
0 
0 
0 
0 
0 
0 
0 
0 
0 
0 
0 
0 
0 
0 
0 
0 
0 
0 
0 
0 
0 
0 
0 
0 
0 
0 
0 
0 
0 
0 
0 
0 
0 
0 
0 
0 
0 
0 
0 
0 
0 
0 
0 
0 
0 
0 
0 
0 
0 
0 
0 
0 
0 
0 
0 
0 
0 
0 
0 
0 
0 
0 
0 
0 
0 
0 
0 
0 
0 
0 
0 
0 
0 
0 
0 
0 
0 
0 
0 
0 
0 
0 
0 
0 
0 
0 
0 
0 
0 
0 
0 
0 
0 
0 
0 
0 
0 
0 
0 
0 
0 
0 
0 
0 
0 
0 
0 
0 
0 
0 
0 
0 
0 
0 
0 
0 
0 
0 
0 
0 
0 
0 
0 
0 
0 
0 
0 
0 
0 
0 
0 
0 
0 
0 
0 
0 
0 
0 
0 
0 
0 
0 
0 
0 
0 
0 
0 
0 
0 
0 
0 
0 
0 
0 
0 
0 
0 
0 
0 
0 
0 
0 
0 
0 
0 
0 
0 
0 
0 
0 
0 
0 
0 
0 
0 
0 
0 
0 
0 
0 
0 
0 
0 
0 
0 
0 
0 
0 
0 
0 
0 
0 
0 
0 
0 
0 
0 
0 
0 
0 
0 
0 
0 
0 
0 
0 
0 
0 
0 
0 
0 
0 
0 
0 
0 
0 
0 
0 
0 
0 
0 
0 
0 
0 
0 
0 
0 
0 
0 
0 
0 
0 
0 
0 
0 
0 
0 
0 
0 
0 
0 
0 
0 
0 
0 
0 
0 
0 
0 
0 
0 
0 
0 
0 
0 
0 
0 
0 
0 
0 
0 
0 
0 
0 
0 
0 
0 
0 
0 
0 
0 
0 
0 
0 
0 
0 
0 
0 
0 
0 
0 
0 
0 
0 
0 
0 
0 
0 
0 
0 
0 
0 
0 
0 
0 
0 
0 
0 
0 
0 
0 
0 
0 
0 
0 
0 
0 
0 
0 
0 
0 
0 
0 
0 
0 
0 
0 
0 
0 
0 
0 
0 
0 
0 
0 
0 
0 
0 
0 
0 
0 
0 
0 
0 
0 
0 
0 
0 
0 
0 
0 
0 
0 
0 
0 
0 
0 
0 
0 
0 
0 
0 
0 
0 
0 
0 
0 
0 
0 
0 
0 
0 
0 
0 
0 
0 
0 
0 
0 
0 
0 
0 
0 
0 
0 
0 
0 
0 
0 
0 
0 
0 
0 
0 
0 
0 
0 
0 
0 
0 
0 
0 
0 
0 
0 
0 
0 
0 
0 
0 
0 
0 
0 
0 
0 
0 
0 
0 
0 
0 
0 
0 
0 
0 
0 
0 
0 
0 
0 
0 
0 
0 
0 
0 
0 
0 
0 
0 
0 
0 
0 
0 
0 
0 
0 
0 
0 
0 
0 
0 
0 
0 
0 
0 
0 
0 
0 
0 
0 
0 
0 
0 
0 
0 
0 
0 
0 
0 
0 
0 
0 
0 
0 
0 
0 
0 
0 
0 
0 
0 
0 
0 
0 
0 
0 
0 
0 
0 
0 
0 
0 
0 
0 
0 
0 
0 
0 
0 
0 
0 
0 
0 
0 
0 
0 
0 
0 
0 
0 
0 
0 
0 
0 
0 
0 
0 
0 
0 
0 
0 
0 
0 
0 
0 
0 
0 
0 
0 
0 
0 
0 
0 
0 
0 
0 
0 
0 
0 
0 
0 
0 
0 
0 
0 
0 
0 
0 
0 
0 
0 
0 
0 
0 
0 
0 
0 
0 
0 
0 
0 
0 
0 
0 
0 
0 
0 
0 
0 
0 
0 
0 
0 
0 
0 
0 
0 
0 
0 
0 
0 
0 
0 
0 
0 
0 
0 
0 
0 
0 
0 
0 
0 
0 
0 
0 
0 
0 
0 
0 
0 
0 
0 
0 
0 
0 
0 
0 
0 
0 
0 
0 
0 
0 
0 
0 
ITEM: TIMESTEP
6000000
ITEM: NUMBER OF ATOMS
896
ITEM: BOX BOUNDS pp pp ff
-1.7153631884999999e+01 1.8003017117999999e+01
-1.7855467918999999e+01 1.7553981017000002e+01
-3.4618715923000003e+01 3.4618715923000003e+01
ITEM: ATOMS q 
0.0103481 
0.00978853 
0.00281953 
0.00165276 
0.0023476 
0.00388064 
0.00129703 
-0.0113589 
-0.000743689 
-0.00225933 
-0.00909137 
-0.00521439 
0.00193689 
0.0116627 
0.00830462 
0.0046026 
-0.00961708 
-0.00046145 
0.0022887 
2.8851e-05 
-0.00306005 
-0.00694323 
-0.00293673 
-0.0046048 
-0.000146468 
-0.000150887 
-0.000184237 
-9.75399e-05 
7.20365e-05 
2.01342e-05 
7.07928e-05 
0.000189334 
-7.94416e-06 
0.000177019 
0.000201295 
0.000100981 
-0.000152429 
-0.000230196 
-0.000201275 
8.43681e-05 
-7.31521e-05 
-0.000150347 
0.00010342 
0.000109509 
1.21781e-05 
0.00946261 
0.00474567 
0.00259859 
0.00594034 
0.0141111 
0.00998613 
0.0115233 
0.0127471 
0.0154644 
0.0141651 
0.0128192 
0.0067059 
0.0135744 
0.00648391 
0.0056512 
0.00685287 
0.00296195 
0.00420707 
-0.00194358 
-0.0044482 
0.00590143 
0.00108309 
-0.00178488 
0.00391415 
0.00715756 
0.00934517 
0.0091746 
0.0113239 
0.00938677 
0.00857932 
0.00994571 
0.00770052 
-0.000379191 
-0.000106675 
-5.58062e-05 
-0.000157398 
-0.000604332 
-0.000415924 
-0.000317708 
-0.0003634 
-0.000527785 
-0.000503746 
-0.000455695 
-0.000431069 
-0.000499529 
-0.000402537 
-0.000443169 
-0.000470558 
-4.78996e-05 
4.59684e-05 
6.59575e-05 
-0.000266471 
-9.61067e-05 
-8.00186e-05 
-0.000426555 
-0.000367141 
-0.000309 
-0.0004326 
-0.000421871 
-0.000338269 
0.00466038 
0.00584185 
0.0047663 
0.000451228 
0.0034747 
0.00557386 
0.00732377 
0.0084374 
-0.00341061 
0.0017197 
0.00359859 
-0.000847547 
-0.00677962 
-0.00604946 
0.00145553 
0.00335024 
0.00448216 
0.000908307 
0.00397031 
0.00958939 
0.0034036 
0.00299324 
0.00348897 
0.00101396 
0.00822914 
0.00172754 
0.00359996 
-0.00020665 
-0.000109258 
3.83137e-05 
-0.000186434 
-0.000154902 
-4.04275e-05 
-1.40323e-05 
-0.000177567 
-0.000201665 
-0.000136252 
-0.000174812 
-2.53913e-05 
-0.000129591 
-0.000161002 
-0.000108085 
-6.63728e-05 
-6.9742e-05 
-0.000214423 
-0.00027394 
-0.00018034 
-0.000185916 
-0.000248085 
-0.000241825 
-0.000136412 
-0.000196488 
-0.000197807 
-0.000226651 
-8.58824e-05 
-0.000172339 
-0.000123823 
0.000120207 
-0.000195055 
-0.00030424 
-0.00123745 
-0.000289383 
-0.000210269 
0.00615636 
-5.98321e-05 
0.00332778 
-0.00022727 
0.000787198 
-0.000102206 
-6.14076e-05 
1.56461e-09 
0.00178315 
0.00166373 
0.000117494 
-0.0166148 
0.00102348 
-0.000116435 
-0.0010816 
4.32642e-05 
0.0034375 
-0.00113532 
-0.000132521 
-0.000135122 
7.24884e-05 
0.00606882 
-7.50705e-05 
3.24911e-05 
-3.31609e-05 
0.00860803 
0.000102946 
-0.000139758 
0.00332051 
-0.00187383 
-0.000224591 
-4.16662e-05 
0.0056728 
-0.00326701 
0.00593465 
-0.00223897 
-8.35214e-07 
-0.00214515 
0.00023862 
-2.45848e-05 
4.52003e-05 
0.00267477 
-2.10709e-05 
-0.00238209 
-1.14601e-05 
-0.00225718 
-0.00229243 
0.000190161 
-7.18996e-05 
0.000991486 
-2.17804e-06 
0.0022886 
0.00125215 
-4.52899e-05 
0.000174758 
-0.00408541 
-4.03837e-05 
-0.00143294 
0.000939585 
9.95186e-05 
0.00325367 
7.03479e-06 
-4.07162e-05 
0.00913817 
0.0117567 
0.00841473 
0.00591524 
0.00732087 
0.00732486 
0.000145727 
0.00576957 
0.00908003 
0.00455205 
0.00558631 
0.00384573 
0.00135246 
0.000882805 
-0.00839264 
-0.0203975 
-0.0117621 
0.011636 
0.00567903 
-0.000770643 
0.00864031 
0.00541953 
0.00120161 
0.00364591 
-0.000312569 
-0.00031096 
-0.000202628 
-9.57995e-05 
-0.00026107 
-0.000297467 
-0.00015414 
-0.000128132 
-0.000313967 
-0.000293376 
-0.000301399 
-0.000392995 
3.47456e-05 
-9.94113e-05 
-0.000150304 
-0.00013393 
3.68577e-05 
0.0001895 
4.96552e-05 
-3.31397e-05 
-0.000334208 
-0.000102467 
-7.54156e-05 
-0.000213985 
0.00941274 
0.0103328 
0.00719179 
0.007326 
0.010256 
0.00590283 
0.00425575 
0.00279936 
0.00129656 
0.000476526 
0.00121655 
-0.0020803 
0.00784459 
0.00980052 
0.012031 
0.0108554 
0.00747733 
0.00881493 
0.00908788 
0.00819744 
0.00367162 
0.00785044 
0.00895993 
0.0109209 
0.00102871 
0.00838001 
0.0104559 
0.00447175 
0.00866105 
0.00496151 
0.00765025 
0.00482949 
-0.00036606 
-0.000407758 
-0.000447589 
-0.000447562 
-0.000251934 
-0.0003648 
-0.000401041 
-0.000381065 
-0.000103627 
-0.000202815 
-0.000278234 
-0.000256115 
2.89136e-05 
-3.33025e-05 
-0.000111817 
-2.97721e-05 
-0.00045997 
-0.000422358 
-0.000323618 
-0.00032185 
-0.000406615 
-0.00043929 
-0.00038166 
-0.000320153 
-0.000363652 
-0.000412403 
-0.000374247 
-0.000330543 
-0.000109289 
-0.000316781 
-0.000303084 
-0.000235292 
0.00797668 
0.0078198 
0.00922322 
0.0032162 
0.00649761 
0.00607254 
0.00260736 
0.00370858 
1.30932e-05 
0.0124687 
0.00954045 
0.00998455 
0.0142757 
0.00659066 
0.00976191 
0.0092138 
0.00497656 
0.00690228 
0.00784967 
0.00382172 
-0.00452863 
-0.000273345 
-0.000318778 
-0.000348172 
-0.000410441 
-0.000195395 
-0.000288706 
-0.000374755 
-0.000341889 
-0.000169885 
-0.000196432 
-0.000247356 
-0.000193703 
-0.00037955 
-0.000279309 
4.6012e-06 
-5.39007e-05 
-0.000317383 
-0.000320177 
-0.000128819 
-7.36582e-05 
-0.000143745 
-0.000182623 
-9.73808e-05 
-9.72607e-05 
0.00384404 
-0.00146066 
-0.000253158 
-0.000267968 
-0.000127089 
7.97389e-06 
-0.000270505 
0.00176083 
-0.000147422 
-8.55521e-05 
-3.81886e-05 
-0.000200477 
-0.000252268 
0.00534904 
-0.000348444 
-0.000361305 
-0.000308427 
-0.000158901 
-0.000141503 
-0.000153142 
-0.000259304 
0.0088652 
-0.000289049 
-0.000257973 
-0.000331131 
0.0158931 
-0.00017672 
-7.42968e-05 
-0.000240576 
0.00157068 
-0.000157952 
0.00451116 
4.53669e-05 
0.00607996 
-7.12459e-05 
0.00193181 
0.00690637 
-0.000305329 
-9.65006e-05 
-0.000116427 
0.0121858 
0.00622541 
-0.000101788 
0.00536869 
0.00494449 
0.00864338 
0.00555963 
-6.67486e-05 
0.00178898 
-0.00432317 
0.00428889 
0.00747793 
0.00999904 
-0.000102775 
-0.000250915 
0.00433376 
0.0158103 
0.00339294 
0.00571571 
-0.000229071 
0.01903 
0.010717 
0.0112066 
0.011571 
0.00442987 
0.0115914 
0.0121892 
0.0110375 
-0.000382033 
-0.000553676 
0.00520067 
0.00549067 
0.00442921 
0.00372748 
0.0113625 
0.0108835 
0.00766309 
0.00385032 
0.0139834 
0.0147586 
0.00977265 
0.0015447 
0.00778776 
0.0128815 
0.0054102 
0.000296526 
0.00237548 
0.000674623 
-0.000633482 
-0.000507629 
-0.00051423 
-0.000555339 
-0.000468121 
-0.000521969 
-0.000555243 
-0.000524672 
-0.00058194 
-0.00030962 
-0.000427691 
-0.000303217 
-0.000317805 
-0.000266589 
-0.00045711 
-0.000382173 
-0.000248462 
-0.000410794 
-0.000360437 
-0.00018094 
-0.000202611 
-0.000241022 
-7.41747e-05 
-2.01715e-05 
3.8157e-05 
-0.0109724 
0.0018261 
-0.00855701 
-0.0507048 
0.00663194 
-0.00109568 
0.00754295 
0.000566038 
0.00330374 
0.00404743 
0.0131874 
0.00519895 
0.0038958 
0.00806847 
-0.00148876 
-0.00220292 
-0.00663449 
-0.0117589 
-0.010358 
-0.00304453 
0.00248268 
-0.000929192 
0.00117913 
0.00339466 
0.0133449 
0.00537848 
0.00457757 
0.00721858 
-0.00524987 
-8.13603e-05 
-0.0026806 
-0.00226195 
-4.66089e-05 
-1.6752e-06 
0.000363385 
9.29073e-05 
-0.000160622 
-0.000140568 
-0.000107069 
-0.000186289 
-0.000243591 
-0.000271911 
8.09935e-05 
0.000100025 
0.000159506 
6.10969e-05 
-0.000123062 
-2.85414e-05 
-5.79193e-05 
-0.000200399 
-0.000175537 
-0.000147846 
-0.000371898 
-8.22147e-07 
0.0015562 
0.0101261 
-0.00151731 
0.00126295 
0.00609341 
0.00443124 
-0.00284834 
-0.00335622 
-0.00378891 
-0.00757349 
-0.00160485 
-0.00377374 
0.0126759 
-0.00319591 
-0.0250916 
-0.000457851 
0.0048608 
0.00691865 
-0.00158729 
-0.00752841 
2.13244e-05 
0.00183582 
-0.00229765 
-0.00296261 
0.00496192 
0.00156757 
0.0040787 
-0.000189338 
-0.0039078 
-0.000155613 
-7.09207e-05 
2.80149e-05 
-0.000168395 
-0.000147368 
-7.70449e-05 
-0.000141895 
-5.4604e-05 
-0.000182691 
-0.00020727 
-0.000132897 
8.8431e-05 
2.99303e-05 
-2.47203e-05 
-1.56752e-05 
5.81444e-05 
-1.93442e-05 
7.01222e-05 
0.00030897 
0.00018892 
4.88851e-06 
-4.21752e-05 
3.44679e-05 
4.19481e-05 
1.0894e-05 
-2.90681e-05 
4.04061e-05 
5.86596e-05 
2.39662e-05 
-6.50208e-05 
-3.4445e-05 
-0.000414562 
0.00218777 
-0.000213807 
0.00514356 
-0.000191217 
-7.90053e-05 
-0.000242417 
4.62091e-05 
-8.20815e-05 
0.00120317 
-0.00010564 
-0.000182267 
-0.000237071 
-0.000179251 
0.0057964 
-0.000111694 
0.00147341 
0.00473166 
-0.000103695 
0.00320382 
0.00592569 
0.00200069 
0.00303784 
-0.000145905 
0.00200095 
0.00554339 
0.000321739 
-0.000117232 
-9.00633e-05 
0.00167981 
-0.000243389 
0.00220793 
0.00393336 
0.00250127 
0.00211359 
-2.65314e-05 
0.00362762 
-8.21835e-05 
-7.22511e-05 
-9.31612e-05 
2.74646e-05 
0.00671485 
0.00362185 
-0.000141618 
0.002289 
1.10707e-06 
-0.000149459 
0.00023883 
0.00256834 
-9.51811e-05 
0.00263645 
-0.000116822 
0.00271871 
0.000972443 
0.00121323 
-0.00018473 
-9.11982e-05 
-0.000134273 
-0.000184871 
0.00330879 
0.00301245 
-0.000129201 
-0.000143241 
-0.000165459 
0.00360557 
-0.00476697 
-0.0117196 
0.0068041 
0.00309862 
0.00160405 
-0.00151952 
0.00304706 
0.00485362 
-0.00303693 
0.00153722 
-0.0151825 
-0.00773561 
-0.00109747 
0.000784565 
0.003265 
0.000204152 
0.00403729 
0.00419669 
0.00932893 
0.00617021 
0.0051064 
0.00489423 
0.0131717 
0.00994737 
0.00261669 
0.00377985 
0.00475061 
4.58872e-05 
0.000102145 
0.00013513 
0.000182682 
-5.85436e-05 
6.27813e-06 
6.19639e-05 
-0.000121462 
-7.36635e-05 
-0.000110929 
-0.000208976 
-0.000333206 
-0.000144977 
-0.000295222 
5.67535e-05 
-3.48461e-05 
-0.00016667 
-0.000169677 
-0.000157551 
-9.38761e-05 
-0.000164406 
-0.00021867 
-0.000362521 
-0.000271285 
-0.000256916 
-0.000306956 
-0.000403082 
-0.000361132 
0.00316872 
0.0043214 
0.0030954 
0.00230045 
0.00806433 
0.00358091 
0.00165249 
0.00476379 
0.00276889 
0.00806836 
0.00994976 
0.00943442 
0.00259238 
0.00689696 
0.0087651 
0.00204874 
0.00224425 
0.00480093 
0.00387745 
0.00414613 
0.00772094 
0.00416248 
0.00577898 
0.0068905 
0.00527702 
0.00224335 
0.00680284 
0.00664191 
-0.000139967 
-0.000344297 
-0.000225884 
-0.000203668 
-0.000255005 
-0.000246324 
-0.000225186 
-0.000217515 
-0.000196952 
-0.000206011 
-0.000244917 
-0.000203967 
-0.000217763 
-0.000221453 
-0.000386411 
-0.000349355 
-0.000271206 
-0.000335577 
-0.000316102 
-0.000276985 
-0.000230117 
-0.00024433 
-0.000267231 
-0.000293775 
-0.000198505 
-0.00023937 
-0.000269908 
-0.000269202 
0.00315329 
0.00555953 
0.00607362 
0.00426959 
0.00438447 
0.0042148 
0.00414314 
0.00448141 
0.00560395 
0.00731063 
0.00870034 
0.00713291 
0.00740366 
0.00766282 
0.0122601 
0.00436093 
0.00721963 
0.00974942 
0.00231986 
0.00456563 
0.0031498 
-0.00292632 
-0.0173611 
0.00448469 
-0.0056446 
-0.00023528 
-0.000263852 
-0.000313095 
-0.000329182 
-0.000230391 
-0.000244328 
-0.000279182 
-0.000213834 
-0.000294327 
-0.000249791 
-0.000203293 
-8.00231e-05 
-0.000351542 
-0.000198004 
-0.000320447 
-0.000283589 
-7.57172e-05 
-0.00020476 
-0.000157847 
-0.000222867 
-9.88873e-05 
-0.000190012 
0.000159646 
4.72205e-05 
1.78317e-05 
-0.000186371 
0.000618472 
0.00570743 
-0.000209292 
0.00196855 
0.00736114 
0.00405403 
0.0118153 
-0.000287322 
0.000305133 
0.0370189 
-7.34289e-05 
-0.000276568 
0.0104687 
0.0508945 
-0.000239285 
0.00719303 
0.00485545 
0.00635335 
0.0123865 
0.00338617 
0.00911135 
0.00823226 
-0.000285663 
0.00682139 
0.00340672 
-5.54276e-05 
-0.000319903 
0.00603791 
0.00703817 
-0.000172781 
-0.000280785 
0.00380669 
-0.000268745 
0.000194152 
0.00438561 
0.00068074 
0.00283891 
0.000131553 
0.0209033 
5.19821e-05 
-9.35417e-05 
0.00467882 
0.00731326 
0.0139754 
-0.000348675 
-0.0545093 
0.00262612 
0.00481277 
0.0130204 
0.00162799 
-2.58688e-06 
8.57642e-05 
0.00316212 
-0.0475757 
