ITEM: TIMESTEP
5000000
ITEM: NUMBER OF ATOMS
896
ITEM: BOX BOUNDS pp pp ff
-1.7153631884999999e+01 1.8003017117999999e+01
-1.7855467918999999e+01 1.7553981017000002e+01
-3.4618715923000003e+01 3.4618715923000003e+01
ITEM: ATOMS q 
0 
0 
0 
0 
0 
0 
0 
0 
0 
0 
0 
0 
0 
0 
0 
0 
0 
0 
0 
0 
0 
0 
0 
0 
0 
0 
0 
0 
0 
0 
0 
0 
0 
0 
0 
0 
0 
0 
0 
0 
0 
0 
0 
0 
0 
0 
0 
0 
0 
0 
0 
0 
0 
0 
0 
0 
0 
0 
0 
0 
0 
0 
0 
0 
0 
0 
0 
0 
0 
0 
0 
0 
0 
0 
0 
0 
0 
0 
0 
0 
0 
0 
0 
0 
0 
0 
0 
0 
0 
0 
0 
0 
0 
0 
0 
0 
0 
0 
0 
0 
0 
0 
0 
0 
0 
0 
0 
0 
0 
0 
0 
0 
0 
0 
0 
0 
0 
0 
0 
0 
0 
0 
0 
0 
0 
0 
0 
0 
0 
0 
0 
0 
0 
0 
0 
0 
0 
0 
0 
0 
0 
0 
0 
0 
0 
0 
0 
0 
0 
0 
0 
0 
0 
0 
0 
0 
0 
0 
0 
0 
0 
0 
0 
0 
0 
0 
0 
0 
0 
0 
0 
0 
0 
0 
0 
0 
0 
0 
0 
0 
0 
0 
0 
0 
0 
0 
0 
0 
0 
0 
0 
0 
0 
0 
0 
0 
0 
0 
0 
0 
0 
0 
0 
0 
0 
0 
0 
0 
0 
0 
0 
0 
0 
0 
0 
0 
0 
0 
0 
0 
0 
0 
0 
0 
0 
0 
0 
0 
0 
0 
0 
0 
0 
0 
0 
0 
0 
0 
0 
0 
0 
0 
0 
0 
0 
0 
0 
0 
0 
0 
0 
0 
0 
0 
0 
0 
0 
0 
0 
0 
0 
0 
0 
0 
0 
0 
0 
0 
0 
0 
0 
0 
0 
0 
0 
0 
0 
0 
0 
0 
0 
0 
0 
0 
0 
0 
0 
0 
0 
0 
0 
0 
0 
0 
0 
0 
0 
0 
0 
0 
0 
0 
0 
0 
0 
0 
0 
0 
0 
0 
0 
0 
0 
0 
0 
0 
0 
0 
0 
0 
0 
0 
0 
0 
0 
0 
0 
0 
0 
0 
0 
0 
0 
0 
0 
0 
0 
0 
0 
0 
0 
0 
0 
0 
0 
0 
0 
0 
0 
0 
0 
0 
0 
0 
0 
0 
0 
0 
0 
0 
0 
0 
0 
0 
0 
0 
0 
0 
0 
0 
0 
0 
0 
0 
0 
0 
0 
0 
0 
0 
0 
0 
0 
0 
0 
0 
0 
0 
0 
0 
0 
0 
0 
0 
0 
0 
0 
0 
0 
0 
0 
0 
0 
0 
0 
0 
0 
0 
0 
0 
0 
0 
0 
0 
0 
0 
0 
0 
0 
0 
0 
0 
0 
0 
0 
0 
0 
0 
0 
0 
0 
0 
0 
0 
0 
0 
0 
0 
0 
0 
0 
0 
0 
0 
0 
0 
0 
0 
0 
0 
0 
0 
0 
0 
0 
0 
0 
0 
0 
0 
0 
0 
0 
0 
0 
0 
0 
0 
0 
0 
0 
0 
0 
0 
0 
0 
0 
0 
0 
0 
0 
0 
0 
0 
0 
0 
0 
0 
0 
0 
0 
0 
0 
0 
0 
0 
0 
0 
0 
0 
0 
0 
0 
0 
0 
0 
0 
0 
0 
0 
0 
0 
0 
0 
0 
0 
0 
0 
0 
0 
0 
0 
0 
0 
0 
0 
0 
0 
0 
0 
0 
0 
0 
0 
0 
0 
0 
0 
0 
0 
0 
0 
0 
0 
0 
0 
0 
0 
0 
0 
0 
0 
0 
0 
0 
0 
0 
0 
0 
0 
0 
0 
0 
0 
0 
0 
0 
0 
0 
0 
0 
0 
0 
0 
0 
0 
0 
0 
0 
0 
0 
0 
0 
0 
0 
0 
0 
0 
0 
0 
0 
0 
0 
0 
0 
0 
0 
0 
0 
0 
0 
0 
0 
0 
0 
0 
0 
0 
0 
0 
0 
0 
0 
0 
0 
0 
0 
0 
0 
0 
0 
0 
0 
0 
0 
0 
0 
0 
0 
0 
0 
0 
0 
0 
0 
0 
0 
0 
0 
0 
0 
0 
0 
0 
0 
0 
0 
0 
0 
0 
0 
0 
0 
0 
0 
0 
0 
0 
0 
0 
0 
0 
0 
0 
0 
0 
0 
0 
0 
0 
0 
0 
0 
0 
0 
0 
0 
0 
0 
0 
0 
0 
0 
0 
0 
0 
0 
0 
0 
0 
0 
0 
0 
0 
0 
0 
0 
0 
0 
0 
0 
0 
0 
0 
0 
0 
0 
0 
0 
0 
0 
0 
0 
0 
0 
0 
0 
0 
0 
0 
0 
0 
0 
0 
0 
0 
0 
0 
0 
0 
0 
0 
0 
0 
0 
0 
0 
0 
0 
0 
0 
0 
0 
0 
0 
0 
0 
0 
0 
0 
0 
0 
0 
0 
0 
0 
0 
0 
0 
0 
0 
0 
0 
0 
0 
0 
0 
0 
0 
0 
0 
0 
0 
0 
0 
0 
0 
0 
0 
0 
0 
0 
0 
0 
0 
0 
0 
0 
0 
0 
0 
0 
0 
0 
0 
0 
0 
0 
0 
0 
0 
0 
0 
0 
0 
0 
0 
0 
0 
0 
0 
0 
0 
0 
0 
0 
0 
0 
0 
0 
0 
0 
0 
0 
0 
0 
0 
0 
0 
0 
0 
0 
0 
0 
0 
0 
0 
0 
0 
0 
0 
0 
0 
0 
0 
0 
0 
0 
0 
0 
0 
0 
0 
0 
0 
0 
0 
0 
0 
0 
0 
0 
0 
0 
0 
0 
0 
0 
0 
0 
0 
0 
0 
0 
0 
0 
0 
0 
0 
0 
0 
0 
0 
0 
0 
0 
0 
0 
0 
0 
0 
0 
0 
0 
0 
0 
ITEM: TIMESTEP
6000000
ITEM: NUMBER OF ATOMS
896
ITEM: BOX BOUNDS pp pp ff
-1.7153631884999999e+01 1.8003017117999999e+01
-1.7855467918999999e+01 1.7553981017000002e+01
-3.4618715923000003e+01 3.4618715923000003e+01
ITEM: ATOMS q 
0.00214471 
-0.00675766 
-0.00229603 
0.00224619 
0.000799764 
0.00305538 
0.00108895 
0.000796544 
-0.00356706 
-0.00358692 
-0.00220416 
-0.00338796 
0.00845836 
0.0119485 
0.00876755 
0.00397166 
8.66007e-05 
0.00302278 
0.00383304 
0.00444995 
-0.00225079 
0.000917855 
0.00346639 
0.00490557 
-8.68246e-05 
-0.000112081 
-0.000244764 
-0.000255138 
-2.87271e-05 
-8.63456e-05 
-0.00014625 
-0.000110258 
0.000106422 
4.04219e-05 
-4.82144e-06 
2.27739e-05 
-0.000273668 
-0.000334983 
-0.000210215 
-0.00016764 
-0.000218655 
-0.000180963 
-0.00010138 
-0.00018516 
-0.000252128 
0.00259195 
-0.002753 
-0.00596216 
-0.00751089 
0.0110722 
-0.000809012 
-0.0071566 
-0.00407602 
0.00243028 
0.00329083 
0.00226267 
0.00579767 
0.00885281 
0.00240985 
0.00281391 
0.0029871 
-0.00424699 
-0.00276746 
0.00431277 
0.00324422 
-0.00219655 
0.000680932 
-0.00209286 
-0.00854292 
0.00346893 
0.0014683 
0.00204832 
0.00403844 
0.00400322 
0.00377508 
0.00437801 
0.00353411 
0.00011783 
0.000141168 
0.000111435 
9.77296e-05 
-5.42896e-05 
0.000100311 
0.000102563 
8.6559e-06 
-0.000224519 
-0.000107671 
-8.39374e-05 
-0.00017453 
-0.000415422 
-0.000231611 
-0.00022912 
-0.000253681 
-1.40726e-05 
-0.000127139 
-0.000267538 
9.0306e-06 
-3.14855e-06 
-6.77532e-05 
-0.00015582 
-6.33409e-05 
-3.87636e-05 
-0.000220005 
-0.000187002 
-0.000131457 
0.0017604 
0.00450194 
0.00158064 
-0.00328467 
0.00244885 
-6.18413e-05 
-0.00401513 
-0.000936766 
0.00809031 
0.00444435 
0.00632527 
0.0095467 
0.00061184 
0.00629227 
0.0104693 
0.0102777 
0.00517061 
0.00657554 
0.0101366 
0.00777094 
0.00454494 
0.00681255 
0.00682393 
0.001233 
0.00503984 
0.00401495 
0.00428415 
-0.000144867 
-0.000197477 
-0.000321 
-9.03143e-05 
-0.00013196 
-0.000192997 
-0.000193761 
-0.000169867 
-8.29276e-05 
-0.000166615 
-0.000259007 
-0.000352143 
-0.000272432 
-0.000278422 
-0.00028659 
-0.000320916 
-0.000380482 
-0.000326207 
-0.000286542 
-0.000321178 
-0.000369069 
-0.000348757 
-0.000322663 
-0.000230337 
-0.000295832 
-0.000297612 
-0.000248359 
-0.000114643 
-0.000118568 
3.0556e-05 
-7.38516e-05 
-0.00191371 
0.0073158 
-0.000339274 
-3.08363e-05 
5.57918e-05 
-0.00321933 
-0.00539641 
0.00347859 
5.62415e-05 
0.000110462 
0.000453498 
-2.06366e-05 
0.000165421 
-0.000260806 
1.99375e-05 
0.00357292 
4.69458e-06 
-0.000237562 
0.00534976 
5.85539e-06 
-0.000128599 
-8.42651e-05 
-0.00126581 
-0.00386008 
-0.00133443 
-3.39436e-05 
-0.00011522 
0.000104028 
-0.00156629 
-5.95899e-07 
-0.000118851 
-0.00230834 
0.00360252 
-0.000137349 
0.000375025 
0.000700548 
-0.00592034 
0.000701607 
5.72458e-05 
0.00332623 
0.0039774 
-8.3886e-05 
-0.000465554 
-0.000694002 
-0.00295945 
0.000208496 
-0.000111844 
-0.000791247 
-0.00160635 
-7.63152e-05 
0.00504954 
0.00260481 
-9.56629e-05 
-0.0105783 
-0.000262134 
-0.000932872 
0.000110771 
0.000128478 
0.0118807 
-3.81138e-05 
-0.00295457 
-0.0117167 
0.00378906 
8.97151e-05 
7.19912e-06 
0.00566496 
5.34642e-05 
-0.00278639 
0.00169817 
0.00242862 
0.006644 
0.00299909 
0.0020498 
0.00238619 
0.00656624 
0.0111436 
0.00913061 
0.0078444 
0.00941935 
0.0111098 
0.00826697 
0.00318749 
0.00595646 
0.00701384 
0.00620156 
0.00606635 
0.00417745 
0.00485063 
0.00597521 
0.00683882 
0.00536243 
0.00526214 
-0.000236053 
-0.000241727 
-0.000287253 
-0.000328098 
-0.000302009 
-0.000259774 
-0.000287206 
-0.000297681 
-0.000311154 
-0.000357694 
-0.000326957 
-0.000339743 
-0.000364118 
-0.000385038 
-0.000258181 
-0.000206795 
-0.000314392 
-0.000341947 
-0.000276206 
-0.000256907 
-0.000311318 
-0.000308806 
-0.000301665 
-0.000315008 
0.00416394 
0.00470811 
0.00533857 
-0.000822511 
0.00285963 
0.0062087 
-0.00751356 
-0.00159787 
0.00130961 
-0.00515702 
0.00276058 
0.0062703 
0.00687321 
0.00555795 
0.00434611 
0.00380407 
0.00819119 
0.00756146 
0.00703448 
0.0077891 
0.00343631 
0.00265407 
0.00469295 
0.00202443 
0.0028526 
0.00483005 
0.00231505 
0.00409511 
0.00666588 
0.0070394 
0.00362476 
0.0088647 
-0.0001787 
-0.000289823 
-0.000330973 
-0.000324149 
-4.13907e-05 
-0.000176481 
-0.000273125 
-0.000279801 
5.27649e-05 
-5.20967e-05 
-0.000188647 
-0.000202124 
-5.19444e-05 
-7.993e-05 
-0.000190911 
-0.000288662 
-0.000339699 
-0.000321981 
-0.000332161 
-0.000361227 
-0.000320459 
-0.00035141 
-0.000362889 
-0.000388678 
-0.000244476 
-0.000285452 
-0.000334398 
-0.000336251 
-0.000340041 
-0.000281468 
-0.000328971 
-0.000450907 
0.00654198 
-0.014906 
-0.0178054 
0.00440734 
-0.000642178 
0.00180975 
0.00368623 
0.004579 
0.00568938 
-0.0195019 
-0.0195195 
-0.00298088 
-0.00180677 
0.000861 
-0.000729129 
0.00333622 
0.0015843 
0.00587834 
0.00257549 
-0.00177023 
-0.0082632 
2.61396e-05 
1.53961e-05 
8.59528e-05 
0.000289349 
-0.000172814 
3.39785e-05 
0.000152524 
-2.25122e-05 
-0.000311563 
-0.000224246 
-0.000171417 
-0.000222298 
0.000188445 
0.000122037 
-5.54991e-05 
-2.1433e-05 
-1.25362e-05 
4.57779e-05 
2.29222e-05 
-2.67137e-05 
-8.28713e-05 
-2.68234e-05 
-2.42685e-05 
1.72113e-05 
-0.000266304 
0.0059876 
0.0104275 
4.18107e-06 
-3.47311e-05 
-7.93178e-05 
0.00391963 
-0.000392759 
0.00251791 
-0.000389277 
-0.000312823 
-0.000377621 
-0.000190534 
0.00634895 
-0.000977152 
2.61501e-05 
0.00803956 
-0.00263605 
0.00659579 
-0.00035991 
0.00547497 
-0.000403843 
0.00530149 
0.00619875 
0.00714575 
-0.000350411 
0.000523295 
6.93686e-05 
-3.71765e-05 
-0.000274711 
0.0116184 
0.00876101 
-7.41245e-05 
0.00901458 
-0.000391472 
-0.000262873 
0.00466798 
-0.000238762 
0.00125318 
-0.00038624 
0.00637853 
-0.000361869 
-7.77022e-05 
0.00569055 
-0.000341061 
0.000507089 
-0.000383876 
0.00482917 
0.00675299 
-0.000312583 
-0.00046991 
-0.00017738 
0.0105528 
0.00628514 
3.35708e-05 
-0.00012267 
0.00802139 
0.00321714 
-0.000183085 
-0.000185233 
0.0160577 
0.0130064 
0.0070288 
0.0102954 
0.00713755 
0.00766491 
0.00754163 
0.00585703 
0.000875729 
0.00181981 
0.00401988 
0.00468126 
-0.00377008 
0.00326777 
0.00859025 
0.00523009 
0.00334003 
-0.00161694 
0.00554892 
0.00570867 
-0.00096628 
0.00245682 
0.006001 
0.00752355 
0.0123398 
0.00973397 
0.00110326 
0.00322221 
-0.000546315 
-0.000390395 
-0.000327663 
-0.000346049 
-0.00043404 
-0.000380289 
-0.00035983 
-0.000331745 
-0.00124647 
-0.00022204 
-0.000326544 
-0.000304259 
-0.000275404 
-0.000236507 
-0.000230143 
-0.000189329 
-0.000134602 
-0.000307537 
-0.000217863 
-0.000220095 
-0.000327653 
-0.000365207 
-0.000352361 
-0.00026878 
-0.000276743 
0.0391074 
0.00188692 
0.0304724 
0.0236617 
0.0038753 
-8.63936e-05 
0.00617609 
-0.00682125 
-0.00979444 
-0.00305294 
0.00120541 
0.00590704 
0.00499527 
-1.83941e-05 
-0.000140695 
0.00200849 
0.00413905 
0.00931428 
0.0101002 
0.00477354 
0.00355646 
0.00366729 
0.00566501 
0.00363846 
0.00351728 
0.00963706 
0.00656692 
0.00752021 
-0.00656266 
-0.000261045 
-0.0112382 
-0.00165325 
-9.86864e-05 
-0.000286975 
-0.00258948 
-0.000791637 
-0.000153688 
-0.000249957 
-0.000428135 
-0.000120426 
-0.000204886 
-0.000272019 
-0.000257622 
-0.00029086 
-0.000295078 
-0.000200283 
-0.000268582 
-0.000257602 
-0.000204196 
-0.000339349 
-0.000293216 
-0.000262634 
2.72551e-05 
0.00165433 
0.0028335 
0.00451366 
0.00371661 
0.00315099 
0.00786852 
0.0133789 
0.0107929 
0.00747789 
0.00584173 
0.00524984 
0.00441616 
0.000664465 
0.00451257 
0.000680616 
0.00097468 
-0.00102491 
0.0108371 
0.00550902 
0.000422702 
-0.00090101 
0.00227101 
0.00474857 
0.00193933 
0.00209131 
0.00135262 
0.00428483 
-0.000266639 
-0.00191848 
0.0018766 
-0.000167191 
-0.000297223 
-0.000356745 
-0.000216154 
-0.000185861 
-0.000188049 
-0.00021982 
-0.000349097 
-0.000324114 
-0.000321293 
-0.000341756 
-0.000309868 
-0.000363863 
-0.000327664 
-0.000231051 
-0.000203244 
-0.000181662 
-0.000150574 
-7.03512e-05 
-2.64923e-05 
-4.8281e-05 
-0.00020589 
-0.000126184 
-6.22136e-05 
-6.61025e-05 
-0.000201238 
-0.000167576 
-0.000109118 
-0.000144614 
-0.000209027 
-0.000207593 
-0.000320285 
0.00292618 
-0.000186482 
0.00705228 
-0.000253322 
-0.000258345 
0.00888727 
-0.000448487 
0.00164483 
0.00192366 
0.0102922 
0.00155543 
0.00213479 
-0.000138228 
-0.000219289 
0.00515708 
-0.000154827 
-0.000241696 
0.00341078 
-0.000275962 
0.00221289 
-0.00055949 
-0.000144597 
0.00371925 
0.0058732 
0.00918535 
-0.000479905 
-0.000237184 
-8.82655e-05 
-0.000215853 
-0.000250261 
-0.0013025 
-0.000369463 
0.0079155 
-0.000167981 
-0.00017479 
-0.000189347 
0.00425102 
0.00578842 
-0.000255073 
0.00404569 
0.00524588 
0.00220652 
0.00556753 
0.00595368 
-0.0014724 
-0.000270918 
-0.000237803 
-0.000193141 
-0.000170334 
-0.000136195 
-0.000337944 
0.00226759 
0.0089071 
0.00565245 
-0.000710939 
-0.000243523 
-0.000323116 
0.000848827 
-0.000103076 
-0.000266371 
-0.00024681 
-8.66242e-05 
-0.000170176 
-0.000547741 
0.0037892 
0.00346264 
0.000437057 
0.00170591 
0.00229192 
0.000257236 
0.00168202 
0.000260226 
0.00400752 
0.000480711 
0.00718966 
0.0113242 
0.0100459 
0.0114875 
0.00419281 
0.00325774 
0.00751297 
0.00866562 
0.000644528 
0.00582315 
0.00888103 
0.00809889 
-0.00419758 
0.00365144 
0.0123728 
0.00829091 
0.00264948 
-0.000110231 
-0.000166228 
-0.000286213 
-0.000330316 
-9.82133e-05 
-0.000151308 
-0.000244775 
-0.000249453 
-0.000118713 
-0.0001124 
-0.000163106 
-0.000121929 
-0.000114218 
-6.14361e-05 
-0.000418265 
-0.000449071 
-0.000510178 
-0.000565196 
-0.000337856 
-0.000423181 
-0.000490598 
-0.000428717 
-0.000199682 
-0.000336968 
-0.000345728 
-0.000243906 
-0.000180648 
-0.00019975 
-0.00196904 
0.00524364 
0.00370158 
0.00957513 
0.000300138 
0.00738226 
0.00448925 
-0.00126224 
-0.0042681 
0.000927904 
-0.00608489 
0.00284018 
0.00830416 
0.00599683 
0.008719 
0.00712751 
0.0122678 
0.0125201 
0.0100472 
0.0107906 
0.00810225 
0.00846431 
0.00767591 
0.0067685 
1.02326e-05 
0.00342076 
0.0107105 
0.0104086 
-0.000180292 
-0.000101464 
-0.000277563 
-0.000234643 
-0.00023485 
-0.000388008 
-0.000229318 
-0.000309575 
-0.00039071 
-0.000418149 
-0.000198756 
-0.000181096 
-0.00028697 
-0.000319594 
-0.000167002 
-0.000155063 
-0.000398742 
-0.00030185 
-0.000249685 
-0.000293527 
-0.000466717 
-0.000470033 
-0.000411602 
-0.000442231 
-0.000380663 
-0.000406657 
-0.0004272 
-0.000354962 
0.0153089 
0.0146042 
0.00782516 
0.00886988 
0.00910941 
0.0122898 
0.00481939 
0.00926366 
0.004607 
-0.000858867 
0.000115619 
0.00495205 
0.00318439 
0.00312473 
0.008286 
0.00983648 
0.00710036 
0.00639434 
0.00919448 
0.00222944 
0.00497352 
0.00408191 
0.00522447 
-0.000402062 
-0.00473577 
-0.000547925 
-0.00054076 
-0.000423652 
-0.000378692 
-0.000450007 
-0.000498146 
-0.000441898 
-0.000385854 
-0.000234057 
-0.000364467 
-0.000326266 
-0.000150698 
-0.000141156 
-9.85689e-05 
-0.000286997 
-0.00018385 
-8.6724e-05 
-0.000242397 
-0.000286088 
-0.000254173 
-0.00011257 
-0.000217953 
-0.000123287 
-0.000255951 
-5.12028e-05 
-0.00199063 
-0.00061015 
-0.000976805 
0.00173274 
0.00494068 
-0.000221769 
0.00449154 
-0.000247976 
-0.000246097 
-0.00014419 
0.0393533 
-0.0038628 
0.011693 
0.00226046 
0.000221173 
0.0228746 
1.58792e-05 
0.00620537 
0.00158948 
0.00199385 
1.62336e-05 
-0.0147077 
-0.000170467 
0.00430275 
-0.000182054 
0.000184859 
1.24963e-05 
-0.000147972 
-0.000379723 
-0.000365116 
4.64549e-05 
0.00506002 
0.00821466 
-6.9112e-05 
-0.000282444 
-0.0489481 
-0.000345853 
0.0437189 
0.00111611 
-0.0686416 
0.00354327 
0.00136569 
0.00236397 
-0.00113399 
0.00178974 
-0.000120987 
0.00335186 
0.00468214 
0.0103743 
0.00434031 
0.000104845 
0.00482752 
-0.000277757 
-0.000200337 
0.00671376 
ITEM: TIMESTEP
7000000
ITEM: NUMBER OF ATOMS
896
ITEM: BOX BOUNDS pp pp ff
-1.7153631884999999e+01 1.8003017117999999e+01
-1.7855467918999999e+01 1.7553981017000002e+01
-3.4618715923000003e+01 3.4618715923000003e+01
ITEM: ATOMS q 
-0.0041667 
0.0077391 
0.00456378 
0.00491947 
-0.0152148 
-0.00506003 
-0.00052569 
-0.00289866 
0.00416232 
-0.000889947 
-0.00217592 
-0.00290738 
0.00556422 
0.00161153 
0.0034591 
0.00548891 
0.00273425 
0.00519859 
0.00621914 
0.00680632 
3.7023e-05 
0.00232929 
0.00590427 
0.00947143 
-6.65704e-05 
-9.2804e-05 
-9.54176e-05 
-0.000155386 
4.42118e-05 
1.03693e-06 
-9.41555e-05 
-0.000101046 
-2.82651e-05 
5.0068e-05 
-1.82016e-05 
-7.92136e-05 
-0.000197926 
-0.00018747 
-0.00028829 
-0.000216004 
-0.000266565 
-0.000348289 
-0.000224979 
-0.000283009 
-0.000388338 
0.0155501 
0.00451914 
-0.000521581 
0.00332214 
0.00965846 
0.00887459 
0.00584426 
0.00565568 
0.00925518 
0.006018 
0.00543302 
0.00465129 
0.0190927 
0.00658225 
0.00533034 
0.00784701 
0.00237368 
0.00227094 
0.00643198 
0.0101774 
0.00375057 
0.00325401 
0.0059839 
-0.00394223 
0.00386267 
0.00106684 
-0.00942752 
-0.0104241 
0.00967294 
0.00702775 
0.00197634 
0.00428017 
-0.000228311 
-7.27252e-05 
-8.57316e-05 
-0.000151422 
-0.000317532 
-0.000230365 
-0.00018191 
-0.000142711 
-0.000294411 
-0.000247244 
-0.000174105 
-0.000159971 
-0.000409103 
-0.000291051 
-0.000269535 
-0.000321367 
-0.000222215 
-0.000304646 
-0.000426462 
-4.08967e-05 
-0.000162831 
-0.000201198 
-1.06004e-05 
8.64282e-05 
5.39842e-05 
-0.000237597 
-6.29014e-05 
-1.01813e-05 
0.00735257 
0.0131883 
0.0161801 
0.00997959 
0.0075963 
0.0101434 
0.0135314 
0.00791723 
0.0131785 
0.00865953 
0.00661197 
0.00903412 
0.00934968 
0.00763228 
0.00516192 
0.0027021 
0.00487038 
0.00454569 
0.0017809 
0.00274357 
0.0110914 
0.00650168 
0.00232012 
2.91484e-05 
0.00355316 
0.00486503 
0.000457183 
-0.000370899 
-0.000406349 
-0.00047038 
-0.000453653 
-0.000408671 
-0.000323522 
-0.000326413 
-0.000437418 
-0.00046553 
-0.000379063 
-0.000317094 
-0.000475319 
-0.000429582 
-0.000384209 
-0.000408641 
-0.000220693 
-0.000204659 
-0.000157671 
-0.000159178 
-0.000226726 
-0.000183582 
-0.000173089 
-0.000187432 
-0.000279928 
-0.000188961 
-0.000151898 
-0.000127114 
0.00838327 
-0.00017896 
0.00285962 
-0.000124724 
-0.0003774 
-0.00139561 
-0.00032039 
-0.00499067 
-0.000441288 
0.0108881 
0.006772 
-0.00556739 
0.000825324 
-0.000244881 
-0.000243692 
0.00244351 
0.00975489 
7.41419e-05 
-3.55839e-05 
-0.000117436 
0.00223366 
-7.76597e-05 
-5.07382e-05 
0.00422973 
-0.000239789 
0.00542805 
-0.000127349 
-0.000301438 
0.0110596 
-0.000362646 
0.00710541 
-0.00011847 
-0.000113743 
0.00735269 
0.00442532 
0.00916809 
-0.000312052 
-0.000398366 
0.000203713 
0.00485592 
-0.00027529 
0.0109951 
-0.000361981 
-0.00119161 
-0.000189694 
7.85808e-05 
-7.98112e-05 
0.0120348 
-0.000466978 
8.94119e-05 
0.000878739 
-0.000438193 
0.013102 
0.00296923 
-0.000494808 
-7.18911e-05 
-8.93678e-05 
-0.0160561 
-0.000202982 
4.2561e-05 
-6.0867e-05 
-7.28157e-05 
0.0108571 
0.00751399 
0.00678478 
0.00709776 
-0.000175483 
0.0127168 
-0.0141331 
0.00273516 
0.00229277 
-3.55394e-05 
0.00578582 
0.00102922 
-0.000929104 
0.00626331 
0.00525356 
0.00289522 
0.0055105 
0.0057193 
0.00553647 
-0.00502104 
-0.00295921 
0.00128645 
-0.00107437 
0.00146759 
-0.000539669 
0.000407233 
0.00254688 
0.00468727 
0.00282232 
0.00158747 
0.00689041 
-0.000714285 
0.00409749 
0.00631789 
-0.000120629 
-0.000102976 
-5.12083e-05 
2.42401e-05 
-0.000177153 
-0.000130943 
-4.73578e-05 
-8.20562e-05 
-0.000138339 
-0.000168768 
-0.000143695 
-0.000161052 
3.50783e-05 
-1.72336e-06 
1.70162e-05 
2.57335e-05 
-7.15075e-05 
-1.89777e-05 
-4.43082e-05 
-0.000146845 
-0.000203402 
-0.000164546 
-0.000206109 
-0.000276672 
-0.00226267 
-0.000121963 
-0.00138502 
0.0115383 
0.00161991 
0.00400189 
0.00615373 
0.0054364 
0.00755318 
0.0065135 
0.00971288 
0.00597895 
-0.000507351 
0.0027454 
0.0105877 
0.0068577 
0.00281963 
-0.000349917 
0.000223931 
0.000781155 
0.00864419 
0.00503818 
0.00365666 
0.00759257 
0.00842645 
0.0118536 
0.0091821 
0.00875572 
0.00567811 
0.00327272 
0.00650906 
0.00876238 
-0.000159399 
-9.51541e-05 
-0.00011861 
-8.88005e-05 
-0.000265653 
-0.000187081 
-0.000105823 
-0.000171106 
-0.000244084 
-0.000258282 
-0.000258908 
-0.000342616 
-0.000218033 
-0.000288692 
-0.00035716 
-0.000376085 
-0.000162825 
-0.000255356 
-0.000279609 
-0.000262567 
-0.00015072 
-0.000143633 
-0.000198414 
-0.000197678 
-0.000337761 
-0.000235315 
-0.00023326 
-0.000303426 
-0.000406407 
-0.000402219 
-0.000364126 
-0.000397327 
-0.000162641 
-0.012918 
-0.00219434 
0.00322534 
0.00245093 
0.00188028 
0.00583966 
0.00603598 
0.0100865 
-0.00792622 
-0.00777341 
0.0025276 
-0.0083883 
-0.000279984 
-0.00325491 
-0.00649321 
-0.0166697 
0.00863867 
0.00605791 
0.00418971 
0.00915808 
6.22634e-05 
0.000173048 
0.00016993 
0.000152543 
-0.000150529 
-2.86177e-05 
4.57779e-05 
-3.78474e-05 
-0.000306464 
-0.000247792 
-0.000221056 
-0.000314521 
0.000162148 
0.000152644 
0.000123291 
-0.000152745 
2.5208e-05 
8.21752e-05 
-0.000198135 
-0.000228702 
-0.000262763 
-0.000121317 
-0.000113399 
-4.46034e-05 
0.00363176 
-0.000207037 
0.00802671 
-0.000264906 
-0.00030541 
-0.000167638 
-0.000353646 
-6.63875e-05 
9.76047e-05 
0.00480173 
7.17141e-06 
-0.000332925 
-0.000226424 
0.00600645 
0.00527168 
0.00653638 
0.00586947 
0.00706568 
0.006945 
0.00932582 
-0.000220484 
-9.26343e-05 
0.00833279 
-0.000325552 
-5.08912e-05 
0.00230839 
0.00289965 
-0.000309148 
1.3505e-05 
0.00424621 
0.00599679 
-0.000230795 
-0.000174555 
-0.000297936 
0.0063016 
-0.000249592 
0.0128273 
0.00621337 
-0.000215276 
-0.000235052 
0.00516201 
0.00403136 
0.00509218 
-4.57483e-05 
-0.000238774 
0.00221228 
0.00767586 
-0.000264219 
-0.000257964 
0.0111742 
-0.000208506 
-0.000274101 
0.00461498 
0.0188969 
-0.000285148 
0.00463074 
-8.91354e-05 
-0.00033279 
0.00557775 
-0.000108354 
0.00422554 
0.00865954 
0.00866901 
0.0119823 
0.00723834 
0.00225816 
0.0098664 
0.00998462 
0.0128403 
0.00963596 
0.0141879 
0.00574734 
0.00311633 
0.00310295 
0.00812474 
0.00749416 
0.00527464 
0.00338557 
0.00849811 
0.00520738 
0.00314571 
0.003471 
0.00509871 
0.00963767 
0.00616274 
0.00365006 
0.00382157 
0.00372886 
-0.000397252 
-0.000388182 
-0.000384946 
-0.000359262 
-0.000416972 
-0.000373105 
-0.000382703 
-0.000352425 
-0.000279075 
-0.000373612 
-0.000344745 
-0.00025067 
-0.000112239 
-9.472e-05 
-0.000259266 
-0.000220159 
-0.000146273 
-0.000226007 
-0.000158495 
1.34193e-05 
-0.000211993 
-0.000181716 
2.71962e-06 
-0.000152895 
-0.000175615 
0.0251383 
0.00520269 
0.0594191 
0.0243825 
0.00470273 
0.00331678 
0.0192616 
0.0103194 
0.00775253 
0.00474762 
0.0112987 
0.00333389 
0.00698598 
0.000569997 
0.000968838 
0.00309151 
0.000874324 
-0.0011743 
-0.000698661 
-0.00309849 
0.00537639 
0.00756394 
0.00084662 
0.00202304 
-0.00724192 
-0.00340574 
0.00106649 
0.00613545 
0.00228924 
-7.32813e-06 
0.00718457 
0.00174187 
3.68381e-06 
1.30113e-05 
0.00172183 
0.000632222 
-7.59378e-05 
-7.98325e-05 
7.42484e-05 
-0.00012231 
-4.49832e-05 
-7.0169e-06 
-9.00956e-05 
-3.84167e-05 
-3.5705e-05 
-0.000116981 
-6.38688e-05 
-6.42342e-05 
-5.4043e-05 
-9.10187e-05 
-7.46775e-05 
-0.00013154 
0.00423056 
0.00413957 
0.00211473 
0.00489455 
-0.0123504 
-0.00966053 
-0.00548775 
-0.00693719 
0.00451291 
-0.010249 
-0.00883714 
0.00449048 
0.00718858 
0.0065239 
0.003489 
-0.000381274 
-0.00198819 
0.00134878 
0.00678834 
0.00625653 
0.00255907 
0.00256154 
0.00317148 
0.00355367 
0.00418364 
0.00351677 
0.00465534 
0.00222275 
0.00432745 
0.00329448 
0.00404623 
-3.42991e-05 
0.000129048 
-6.81212e-05 
7.25066e-06 
-9.64059e-05 
-7.58682e-05 
-8.24126e-05 
0.000121484 
7.44503e-05 
-2.97496e-05 
-7.77527e-05 
-3.49904e-05 
7.86045e-05 
-3.54955e-05 
-0.000138554 
-0.000206438 
-0.000191398 
-7.98102e-05 
2.85291e-05 
-2.67965e-05 
-0.000162647 
-0.000150601 
-0.000127019 
-0.000161968 
-0.000196406 
-0.000161963 
-0.000157282 
-0.000167019 
-0.000161674 
-0.000152236 
-0.000141072 
0.00227742 
-0.00620277 
0.00158637 
0.00847582 
0.00284265 
0.00559731 
-0.000126418 
-4.15862e-05 
0.00772665 
-0.000251 
-9.04948e-05 
0.00139552 
0.00170608 
0.00454919 
0.00130691 
-0.00011368 
-0.000211265 
0.00779402 
-3.0245e-05 
-0.00014254 
-8.06908e-06 
0.00518471 
-0.000122917 
0.0057807 
-0.000220228 
0.00554596 
-0.00255468 
-0.000256915 
-0.000211969 
-0.000139576 
-9.09153e-05 
-0.000183034 
-2.01165e-06 
0.00274186 
0.00979697 
3.29251e-05 
-0.000354031 
-0.000157659 
-0.000188392 
-0.000160548 
0.0097567 
0.00572496 
0.00226087 
-8.9484e-05 
-0.000140984 
-0.000225034 
-0.000100614 
-0.000226068 
-0.000230804 
0.00933124 
-0.00686199 
0.00366079 
0.00104024 
-8.02644e-05 
-0.000159565 
0.00158073 
-0.000156405 
-0.000209799 
0.00157832 
-7.80967e-05 
-0.000166586 
0.00444159 
-1.60106e-05 
0.00617884 
0.00365649 
0.00322076 
0.00540241 
0.00726615 
0.00930356 
0.0071278 
0.0042343 
0.00528245 
-0.000334021 
0.00348873 
-0.000529537 
0.00751786 
0.00433155 
0.00858884 
0.0129147 
0.00538028 
0.00721754 
0.0103368 
0.0103518 
0.000740792 
0.00612024 
0.00906603 
0.0100591 
0.000460951 
0.00618391 
0.011312 
0.0110035 
0.00753323 
-0.000234505 
-0.000251812 
-0.000332414 
-0.000346076 
-0.000249938 
-0.000296077 
-0.000323874 
-0.000315088 
-0.000134857 
-0.000196541 
-0.000215925 
-0.000168711 
-0.000114502 
-0.00013742 
-0.000399361 
-0.000423754 
-0.00044758 
-0.0004569 
-0.000380941 
-0.000441846 
-0.000450314 
-0.000401944 
-0.000260397 
-0.000374901 
-0.000378738 
-0.000280791 
-0.000257583 
-0.000253482 
0.00213987 
0.0039834 
0.00762866 
0.00607114 
0.00727475 
0.0073214 
0.00427188 
0.00689143 
0.00584317 
0.00134706 
0.00297072 
0.00657423 
0.00628764 
0.00760286 
0.00508336 
0.00443245 
0.00139205 
0.00269305 
0.00353798 
0.00368388 
0.00457478 
0.00689979 
0.00514042 
0.00499132 
0.00483959 
0.00392206 
0.00346564 
0.00365231 
-0.000144396 
-0.00018027 
-0.00023231 
-0.000202315 
-0.000207314 
-0.000238104 
-0.000227326 
-0.000252121 
-0.000230844 
-0.000196523 
-0.000161181 
-0.00018961 
-0.000183244 
-0.000145742 
-0.000220591 
-0.000161747 
-0.000215652 
-0.000234261 
-0.000175734 
-0.000129718 
-0.000185161 
-0.000185382 
-0.000158797 
-0.000114305 
-0.000112359 
-0.00017071 
-0.000123098 
-5.7548e-05 
0.00839286 
0.00721655 
0.00653468 
0.00954444 
0.00695036 
0.00401747 
0.00703355 
0.00267597 
-0.000256269 
0.00399262 
-0.000639637 
0.00736956 
0.00900988 
0.00382917 
0.00645884 
0.0036366 
0.00614913 
0.004846 
0.00941986 
-0.000831196 
0.00196362 
0.00680835 
0.0148375 
-0.00797484 
0.0097685 
-0.000399084 
-0.000362278 
-0.000329336 
-0.000308446 
-0.000312375 
-0.000327764 
-0.000266516 
-0.000199168 
-0.000146493 
-0.000166649 
-0.000111714 
2.72915e-06 
5.17443e-05 
0.000173191 
-0.000245109 
-0.000163837 
-1.57937e-05 
-0.000133827 
-0.000185584 
-0.000191998 
-9.29551e-05 
-0.000103332 
-0.000124799 
-0.000307354 
-0.000181554 
-0.000770509 
-0.00229159 
9.34437e-05 
-4.05177e-05 
-0.00169582 
0.000316905 
-0.0669763 
-0.0230833 
0.000162429 
0.000392755 
-0.00131364 
1.56654e-05 
0.0048068 
9.22855e-05 
0.000538888 
-0.0753901 
0.0386483 
-0.0282008 
-0.00668742 
0.000172283 
0.000220183 
0.000442165 
0.00210172 
0.00325619 
-0.00221692 
0.0286344 
0.00282646 
0.00250648 
0.00190065 
0.000297227 
0.000120046 
0.00333579 
0.000167222 
-0.0082687 
0.00277645 
-0.000582452 
0.00391956 
-1.81433e-05 
-0.0227847 
0.00680684 
0.00741812 
2.46105e-05 
0.0025377 
0.000263567 
0.000401902 
0.000188399 
-0.00239836 
0.00288231 
0.0173327 
-0.00113386 
0.0117263 
-0.00210973 
0.000159775 
-0.014515 
-3.79489e-06 
