ITEM: TIMESTEP
5000000
ITEM: NUMBER OF ATOMS
896
ITEM: BOX BOUNDS pp pp ff
-1.7153631884999999e+01 1.8003017117999999e+01
-1.7855467918999999e+01 1.7553981017000002e+01
-3.4618715923000003e+01 3.4618715923000003e+01
ITEM: ATOMS q 
0 
0 
0 
0 
0 
0 
0 
0 
0 
0 
0 
0 
0 
0 
0 
0 
0 
0 
0 
0 
0 
0 
0 
0 
0 
0 
0 
0 
0 
0 
0 
0 
0 
0 
0 
0 
0 
0 
0 
0 
0 
0 
0 
0 
0 
0 
0 
0 
0 
0 
0 
0 
0 
0 
0 
0 
0 
0 
0 
0 
0 
0 
0 
0 
0 
0 
0 
0 
0 
0 
0 
0 
0 
0 
0 
0 
0 
0 
0 
0 
0 
0 
0 
0 
0 
0 
0 
0 
0 
0 
0 
0 
0 
0 
0 
0 
0 
0 
0 
0 
0 
0 
0 
0 
0 
0 
0 
0 
0 
0 
0 
0 
0 
0 
0 
0 
0 
0 
0 
0 
0 
0 
0 
0 
0 
0 
0 
0 
0 
0 
0 
0 
0 
0 
0 
0 
0 
0 
0 
0 
0 
0 
0 
0 
0 
0 
0 
0 
0 
0 
0 
0 
0 
0 
0 
0 
0 
0 
0 
0 
0 
0 
0 
0 
0 
0 
0 
0 
0 
0 
0 
0 
0 
0 
0 
0 
0 
0 
0 
0 
0 
0 
0 
0 
0 
0 
0 
0 
0 
0 
0 
0 
0 
0 
0 
0 
0 
0 
0 
0 
0 
0 
0 
0 
0 
0 
0 
0 
0 
0 
0 
0 
0 
0 
0 
0 
0 
0 
0 
0 
0 
0 
0 
0 
0 
0 
0 
0 
0 
0 
0 
0 
0 
0 
0 
0 
0 
0 
0 
0 
0 
0 
0 
0 
0 
0 
0 
0 
0 
0 
0 
0 
0 
0 
0 
0 
0 
0 
0 
0 
0 
0 
0 
0 
0 
0 
0 
0 
0 
0 
0 
0 
0 
0 
0 
0 
0 
0 
0 
0 
0 
0 
0 
0 
0 
0 
0 
0 
0 
0 
0 
0 
0 
0 
0 
0 
0 
0 
0 
0 
0 
0 
0 
0 
0 
0 
0 
0 
0 
0 
0 
0 
0 
0 
0 
0 
0 
0 
0 
0 
0 
0 
0 
0 
0 
0 
0 
0 
0 
0 
0 
0 
0 
0 
0 
0 
0 
0 
0 
0 
0 
0 
0 
0 
0 
0 
0 
0 
0 
0 
0 
0 
0 
0 
0 
0 
0 
0 
0 
0 
0 
0 
0 
0 
0 
0 
0 
0 
0 
0 
0 
0 
0 
0 
0 
0 
0 
0 
0 
0 
0 
0 
0 
0 
0 
0 
0 
0 
0 
0 
0 
0 
0 
0 
0 
0 
0 
0 
0 
0 
0 
0 
0 
0 
0 
0 
0 
0 
0 
0 
0 
0 
0 
0 
0 
0 
0 
0 
0 
0 
0 
0 
0 
0 
0 
0 
0 
0 
0 
0 
0 
0 
0 
0 
0 
0 
0 
0 
0 
0 
0 
0 
0 
0 
0 
0 
0 
0 
0 
0 
0 
0 
0 
0 
0 
0 
0 
0 
0 
0 
0 
0 
0 
0 
0 
0 
0 
0 
0 
0 
0 
0 
0 
0 
0 
0 
0 
0 
0 
0 
0 
0 
0 
0 
0 
0 
0 
0 
0 
0 
0 
0 
0 
0 
0 
0 
0 
0 
0 
0 
0 
0 
0 
0 
0 
0 
0 
0 
0 
0 
0 
0 
0 
0 
0 
0 
0 
0 
0 
0 
0 
0 
0 
0 
0 
0 
0 
0 
0 
0 
0 
0 
0 
0 
0 
0 
0 
0 
0 
0 
0 
0 
0 
0 
0 
0 
0 
0 
0 
0 
0 
0 
0 
0 
0 
0 
0 
0 
0 
0 
0 
0 
0 
0 
0 
0 
0 
0 
0 
0 
0 
0 
0 
0 
0 
0 
0 
0 
0 
0 
0 
0 
0 
0 
0 
0 
0 
0 
0 
0 
0 
0 
0 
0 
0 
0 
0 
0 
0 
0 
0 
0 
0 
0 
0 
0 
0 
0 
0 
0 
0 
0 
0 
0 
0 
0 
0 
0 
0 
0 
0 
0 
0 
0 
0 
0 
0 
0 
0 
0 
0 
0 
0 
0 
0 
0 
0 
0 
0 
0 
0 
0 
0 
0 
0 
0 
0 
0 
0 
0 
0 
0 
0 
0 
0 
0 
0 
0 
0 
0 
0 
0 
0 
0 
0 
0 
0 
0 
0 
0 
0 
0 
0 
0 
0 
0 
0 
0 
0 
0 
0 
0 
0 
0 
0 
0 
0 
0 
0 
0 
0 
0 
0 
0 
0 
0 
0 
0 
0 
0 
0 
0 
0 
0 
0 
0 
0 
0 
0 
0 
0 
0 
0 
0 
0 
0 
0 
0 
0 
0 
0 
0 
0 
0 
0 
0 
0 
0 
0 
0 
0 
0 
0 
0 
0 
0 
0 
0 
0 
0 
0 
0 
0 
0 
0 
0 
0 
0 
0 
0 
0 
0 
0 
0 
0 
0 
0 
0 
0 
0 
0 
0 
0 
0 
0 
0 
0 
0 
0 
0 
0 
0 
0 
0 
0 
0 
0 
0 
0 
0 
0 
0 
0 
0 
0 
0 
0 
0 
0 
0 
0 
0 
0 
0 
0 
0 
0 
0 
0 
0 
0 
0 
0 
0 
0 
0 
0 
0 
0 
0 
0 
0 
0 
0 
0 
0 
0 
0 
0 
0 
0 
0 
0 
0 
0 
0 
0 
0 
0 
0 
0 
0 
0 
0 
0 
0 
0 
0 
0 
0 
0 
0 
0 
0 
0 
0 
0 
0 
0 
0 
0 
0 
0 
0 
0 
0 
0 
0 
0 
0 
0 
0 
0 
0 
0 
0 
0 
0 
0 
0 
0 
0 
0 
0 
0 
0 
0 
0 
0 
0 
0 
0 
0 
0 
0 
0 
0 
0 
0 
0 
0 
0 
0 
0 
0 
0 
ITEM: TIMESTEP
6000000
ITEM: NUMBER OF ATOMS
896
ITEM: BOX BOUNDS pp pp ff
-1.7153631884999999e+01 1.8003017117999999e+01
-1.7855467918999999e+01 1.7553981017000002e+01
-3.4618715923000003e+01 3.4618715923000003e+01
ITEM: ATOMS q 
-5.72878e-05 
-6.09989e-05 
-3.4968e-05 
-2.04969e-05 
-5.52602e-05 
-3.9329e-05 
-2.50056e-05 
-2.28846e-05 
-5.5456e-05 
-3.87462e-05 
-2.77048e-05 
-2.58424e-05 
-3.90836e-05 
-3.01301e-05 
-1.9115e-05 
-2.68245e-05 
-2.60491e-05 
-2.07087e-05 
-2.11533e-05 
-2.02595e-05 
-2.12133e-05 
-2.34476e-05 
-2.33414e-05 
-2.27749e-05 
-2.34572e-05 
-2.38531e-05 
-2.36177e-05 
-2.31504e-05 
-0.000993828 
-0.000967534 
-0.000776338 
-0.000529845 
-0.000747149 
-0.000521682 
-0.000480683 
-0.000437011 
-0.000595622 
-0.000435147 
-0.000416149 
-0.000404448 
-0.000362519 
-0.000383192 
-0.000497092 
-0.000721096 
-0.000700028 
-0.000409474 
-0.000422297 
-0.000394068 
-0.000398254 
-0.000383989 
-0.000354844 
-0.000415441 
-0.000390671 
-5.41202e-05 
-2.96758e-05 
-5.05643e-05 
-3.98688e-05 
-3.5096e-05 
-3.84169e-05 
-4.16665e-05 
-3.95803e-05 
-4.57191e-05 
-4.85097e-05 
-3.3993e-05 
-3.06802e-05 
-4.56284e-05 
-2.85517e-05 
-2.56442e-05 
-2.0383e-05 
-3.21835e-05 
-2.59686e-05 
-2.04745e-05 
-1.07482e-05 
-4.03368e-05 
-3.27182e-05 
-1.56882e-05 
4.0842e-06 
-2.42117e-05 
-3.11623e-05 
-6.97088e-06 
2.50065e-05 
-0.000414141 
-0.000400709 
2.58022e-05 
-0.000217478 
-0.000310498 
-0.000277227 
0.000858988 
0.000186334 
-1.2053e-05 
1.82761e-05 
0.00103377 
0.000660374 
0.000213382 
-0.000150887 
-0.000438234 
-0.00038824 
-0.000460459 
-0.000473353 
-0.000150438 
-0.000264618 
-0.000540866 
-0.000358186 
-0.000247857 
-0.00035576 
-2.22016e-05 
-2.74378e-05 
-2.60587e-05 
-2.19397e-05 
-2.44982e-05 
-2.36523e-05 
-2.3823e-05 
-2.61619e-05 
-2.48645e-05 
-2.60685e-05 
-2.70594e-05 
-2.74887e-05 
-2.30382e-05 
-2.43598e-05 
-2.20415e-05 
-2.57233e-05 
-2.21067e-05 
-1.89055e-05 
-2.62534e-05 
-2.3458e-05 
-2.19357e-05 
-2.43484e-05 
-2.80141e-05 
-2.78841e-05 
-2.66631e-05 
-2.74455e-05 
-2.7752e-05 
-2.77355e-05 
-0.000449904 
-0.000352355 
-0.000347356 
-0.000437847 
-0.000698176 
-0.000727317 
-0.000455621 
-0.000328739 
-0.000358873 
-0.000359266 
-0.000316643 
-0.000312308 
-0.000297652 
-0.000284694 
-0.000265739 
-0.000316531 
-0.000281721 
-0.000479959 
-0.000806896 
-0.00084371 
-0.000333615 
-0.000401552 
-0.000434601 
-0.000274813 
-0.000310114 
-0.000347069 
-0.000270547 
-0.00031619 
-1.90563e-05 
-1.72757e-05 
1.1305e-05 
-3.28796e-07 
3.76355e-06 
4.61513e-05 
8.58491e-05 
8.72555e-05 
0.000123156 
0.00019793 
9.88361e-05 
0.000162842 
0.000262128 
0.000224829 
-2.05193e-05 
-2.71027e-05 
2.8178e-05 
-1.32178e-05 
-2.09298e-05 
-1.62436e-05 
0.000138795 
5.10589e-05 
1.13146e-05 
3.23088e-05 
0.00018693 
0.000143511 
8.336e-05 
0.000121161 
-0.000439604 
-0.000745997 
-0.00110195 
-0.00145463 
-0.000397572 
-0.000286308 
-0.00093301 
-0.00060286 
-0.00052107 
-0.000634917 
-0.0076029 
-0.00384699 
-0.00312417 
-0.00383646 
-0.0032483 
-0.0134905 
-0.00800535 
-0.00270554 
-0.000267295 
-0.000432818 
-0.000259489 
-0.000295351 
-0.000899538 
-0.000460466 
-0.000305393 
-0.00261226 
-0.00143517 
-0.00141261 
-1.87321e-05 
-2.19044e-05 
-2.49445e-05 
-1.9399e-05 
-2.24077e-05 
-1.98883e-05 
-1.84992e-05 
-1.94437e-05 
-2.49216e-05 
-2.30849e-05 
-2.08796e-05 
-1.9525e-05 
-2.49443e-05 
-2.1532e-05 
-2.02826e-05 
-3.44059e-05 
-2.07791e-05 
-1.39965e-05 
-1.75787e-05 
-1.78609e-05 
-1.64791e-05 
-1.43949e-05 
-1.57829e-05 
-1.52593e-05 
-1.30633e-05 
-4.61047e-06 
-8.34287e-06 
1.54112e-06 
-9.48087e-06 
-1.24025e-05 
-1.56509e-06 
-0.000538283 
-0.000402649 
-0.000353595 
-0.000559151 
-0.000779318 
-0.000647632 
-0.000528807 
-0.000442425 
-0.000493624 
-0.000516446 
-0.000506017 
-0.000407842 
-0.000438888 
-0.000481304 
-0.000523993 
-0.000440443 
-0.000513632 
-0.000522207 
-0.000450818 
-0.000668762 
-0.000633615 
-0.000525895 
-0.000527975 
-0.000534633 
-0.000562525 
-0.000583217 
-0.000561441 
-0.00058486 
-0.000712515 
-0.000798432 
-0.000909576 
-2.6136e-05 
-2.22503e-05 
-2.35757e-05 
-2.72489e-05 
-2.73874e-05 
-4.40942e-05 
2.07107e-05 
-1.23825e-05 
-3.2722e-05 
-2.01477e-05 
0.000137877 
9.23281e-05 
7.88849e-05 
0.00012996 
-1.2579e-05 
2.98789e-05 
-3.5269e-05 
-6.00671e-06 
3.06764e-05 
6.34538e-05 
-6.81883e-05 
-5.8234e-05 
5.39884e-06 
-3.30712e-05 
4.95332e-05 
-4.41019e-05 
-8.9783e-05 
-0.000116799 
4.2364e-05 
0.000102799 
-4.57688e-07 
-0.000131412 
-0.000342303 
-0.000323063 
-0.000724768 
-0.00265185 
-0.000419179 
-0.000592393 
-0.000310997 
-0.000353622 
-0.000441593 
0.000206115 
-0.000364025 
0.000126256 
0.00118734 
0.00522187 
-0.00696261 
-0.00413432 
-0.00108192 
-0.00351907 
-0.000815486 
-0.00154205 
-0.000979188 
-0.00169205 
-0.00252354 
-0.00548837 
0.00287905 
-0.00184551 
-0.00590848 
-0.00114408 
0.00235087 
0.0019959 
0.0019266 
0.00203401 
2.41066e-05 
5.34953e-05 
1.30007e-05 
-9.01365e-06 
-4.54678e-06 
-9.23604e-06 
-9.20038e-06 
-8.64206e-06 
-5.12731e-06 
1.44104e-05 
1.10547e-05 
1.29498e-05 
5.38448e-05 
2.65193e-05 
-1.45091e-05 
-8.81114e-06 
-3.01394e-06 
-5.97961e-06 
-2.97894e-05 
-8.03599e-06 
-1.21704e-05 
-1.5741e-05 
-3.44323e-05 
-6.5968e-06 
-1.45465e-05 
-0.00068167 
-0.00182463 
-0.00234961 
-0.00092874 
-0.000576223 
-0.000636282 
-0.000667284 
-0.000597735 
-0.000717046 
-0.000602253 
-0.000590588 
-0.000616802 
-0.000890755 
-0.000802654 
-0.000950009 
-0.00177432 
-0.00147378 
-0.0011097 
-0.000592027 
-0.000653859 
-0.000642006 
-0.00079966 
-0.000559627 
-0.000527185 
-0.000504587 
-0.000640031 
-0.000549435 
-0.000457737 
2.20088e-05 
7.727e-05 
5.77547e-05 
5.35883e-05 
6.53359e-05 
4.86687e-05 
6.18226e-06 
-7.18246e-05 
-5.04821e-05 
-6.03614e-05 
7.3429e-06 
-3.24806e-05 
2.07844e-05 
7.12695e-06 
-9.5121e-06 
-2.99312e-05 
1.15711e-05 
1.36684e-05 
-2.761e-06 
-1.61017e-05 
2.30525e-06 
1.97142e-05 
2.01636e-05 
-9.69003e-06 
-0.00149972 
-0.000905472 
-0.0040561 
-0.00189174 
-0.00132073 
-0.00126681 
-0.00114609 
-0.00300582 
-0.00110136 
-0.0011102 
0.00326873 
0.00155892 
-0.000420899 
-0.00212154 
-0.000708155 
-0.000500061 
-0.000836667 
-0.000672311 
-0.000423137 
-0.000146648 
-0.00128524 
-0.000697052 
-0.000254739 
0.000493377 
-0.00376619 
-0.00208607 
-0.000517976 
0.000595074 
-1.38539e-08 
1.15448e-05 
2.6012e-05 
5.57711e-05 
8.82059e-05 
3.36743e-05 
8.13401e-05 
-6.11736e-05 
0.000100051 
-4.1121e-05 
-0.000159457 
-0.000212296 
0.000109645 
-7.84218e-05 
-0.000176343 
-0.000115435 
9.79969e-06 
-1.19357e-07 
2.72464e-05 
9.41969e-05 
-0.000108937 
-1.66166e-05 
5.0634e-05 
4.29018e-05 
-0.000187574 
-0.000149677 
-6.57528e-05 
-3.3188e-05 
-0.000102717 
-0.000130056 
-6.37848e-05 
3.9695e-06 
-0.00747746 
-0.000270539 
-0.000426456 
-0.0003811 
-0.00312734 
-0.0116305 
0.000993276 
0.00352981 
0.00706037 
0.0076448 
0.00538974 
0.00420379 
-0.00019667 
0.00425147 
0.00352053 
0.00125088 
-0.00217585 
-0.000265647 
-0.000984874 
0.00240229 
-0.00385011 
-0.00554089 
0.00226447 
0.00169953 
-0.00156701 
0.000780309 
0.000981946 
-0.000923718 
2.16842e-05 
-3.87883e-05 
-6.30323e-05 
-2.70682e-05 
-6.7443e-06 
-3.62146e-05 
-1.65297e-05 
-2.88726e-06 
-4.72214e-05 
-3.14186e-05 
-1.41378e-05 
-2.47682e-05 
-1.49777e-05 
-3.70623e-05 
3.05176e-06 
3.84957e-05 
4.13293e-06 
6.54539e-06 
2.23783e-05 
2.1432e-05 
-1.64583e-05 
5.35275e-07 
2.97407e-06 
-1.62998e-05 
-0.00136907 
1.96712e-05 
3.10009e-05 
-0.000751234 
-0.00200811 
-0.000897419 
-0.000894924 
-0.000970449 
-0.00181386 
-0.0010082 
-0.000857806 
-0.00092722 
-0.00121511 
-0.0011331 
-0.00223987 
-0.00107802 
-0.00145581 
-0.00172422 
-0.000897739 
-0.000941575 
-0.000985326 
0.000178399 
0.000180728 
0.000220184 
0.000216979 
0.000130884 
0.000216557 
0.000239336 
0.000144403 
5.09159e-05 
0.000103538 
0.000111779 
0.000133779 
9.18012e-05 
0.00010942 
0.0001872 
0.00024174 
0.000170915 
0.000165004 
0.00016092 
7.90264e-05 
7.18107e-05 
0.000102454 
3.04355e-05 
-5.44949e-05 
0.000101899 
2.03089e-05 
-3.5212e-05 
-5.03971e-05 
0.000238255 
0.000135217 
2.98081e-05 
2.08703e-05 
-0.00520916 
-0.00393056 
-0.00152724 
-0.0022372 
-0.00961316 
-0.00483148 
-0.0034853 
-0.00366385 
-0.00482679 
-0.0106226 
-0.00458737 
-0.000765374 
-0.001809 
-0.00178269 
4.40347e-05 
-0.00184192 
-0.00587882 
-0.0060069 
-0.00812032 
-0.0115155 
-0.00666551 
-0.00692378 
-0.00529866 
-0.000757655 
-0.000665476 
0.00381013 
-0.00162009 
0.00136765 
0.00469885 
-0.00383689 
-0.000455255 
0.00266847 
8.2199e-05 
0.000133926 
0.000209381 
0.00016762 
3.13247e-05 
7.11839e-05 
8.90965e-05 
4.82089e-05 
-1.28336e-05 
1.40012e-05 
1.55417e-05 
-1.17803e-05 
0.000147098 
0.000157978 
5.83244e-05 
6.06875e-05 
4.68443e-05 
6.66454e-05 
6.30008e-05 
5.305e-05 
-8.03039e-06 
1.65686e-05 
2.14969e-05 
-3.07902e-06 
-0.0024965 
-0.00137812 
-0.000926709 
-0.00314211 
-0.0067475 
-0.00912187 
-0.00392001 
-0.00143029 
-0.00237997 
-0.00232058 
-0.00138161 
-0.000944394 
-0.00106892 
-0.00109075 
-0.000995622 
-0.00173391 
0.00114727 
0.00186992 
-0.00143464 
-0.000974828 
-0.00253345 
-0.00107369 
-0.00121029 
-0.00133228 
6.97294e-05 
0.000164032 
0.000194288 
0.000119782 
-9.37749e-06 
7.01661e-05 
0.000108823 
0.000160852 
-2.81097e-05 
7.42725e-05 
0.000240486 
0.000178113 
6.72204e-06 
3.12652e-05 
9.64064e-05 
0.000113722 
2.62575e-05 
1.52478e-07 
-0.000114463 
-0.000174365 
5.40266e-05 
-5.78733e-05 
-0.00015915 
-0.000174238 
0.000140383 
6.64835e-05 
-6.04229e-05 
-2.9115e-05 
0.000101762 
9.37483e-05 
6.62637e-05 
5.54907e-05 
-0.000197493 
-0.000266941 
-0.000151327 
-1.09679e-05 
-0.00112292 
0.00283049 
0.00332196 
0.000355418 
-0.00132598 
-0.0115636 
-0.00893442 
0.00117075 
-0.00638835 
-0.00155563 
-0.000891241 
-0.00160085 
-0.00377037 
-0.0186425 
-0.00698412 
-0.00390481 
-0.00186225 
-2.38458e-05 
-0.00126886 
-0.00158036 
0.00239643 
0.00107997 
0.00278125 
0.0031215 
0.0024279 
0.00498436 
0.00456011 
0.00571467 
-0.00511161 
3.54765e-05 
0.00441052 
0.00211507 
-0.00280077 
-0.00353967 
-0.00292048 
-0.00258793 
0.000136135 
0.000128511 
0.000185964 
0.000174194 
8.21955e-05 
0.000164375 
0.000175074 
7.13722e-05 
9.47623e-07 
4.74807e-05 
3.31866e-05 
-1.91326e-05 
9.21721e-05 
8.79481e-05 
6.97382e-05 
0.000113636 
2.21089e-05 
4.54214e-05 
8.88507e-05 
0.000135569 
-3.25867e-05 
-1.69898e-05 
2.99032e-05 
2.32073e-05 
0.000124893 
0.000283055 
0.000106775 
-0.0044402 
-0.0028417 
-0.00121709 
-0.0125858 
-0.00840812 
-0.00375446 
-0.0022301 
-0.00284125 
-0.00699145 
-0.0025264 
0.00054292 
-0.00104639 
-0.00104277 
-0.000268393 
-0.000216574 
-0.000227974 
-0.00218777 
-0.00178302 
-0.00439044 
0.000918826 
-0.000137668 
-0.00866749 
-0.0132847 
0.000226366 
0.000523602 
-0.00213016 
-0.00170104 
-0.000157231 
-0.000122585 
-0.0001386 
-0.000260826 
-0.000236189 
-0.00026327 
-0.000276974 
-0.000320406 
-0.000270263 
-0.000131115 
-0.000217706 
-0.00017448 
-8.34961e-05 
-1.25588e-05 
-5.71252e-06 
-3.08014e-05 
-0.000171182 
-9.65528e-05 
-4.20508e-05 
0.000113731 
-0.000171897 
-0.000110755 
7.09908e-05 
0.000275293 
-0.000129777 
-6.85463e-05 
0.000114475 
0.000232339 
0.00156622 
0.00218409 
-0.00114983 
-0.000545373 
0.00876269 
0.00389721 
0.00300993 
0.00374061 
0.00428071 
0.0108533 
0.00499446 
0.00360277 
0.00307601 
0.00396502 
0.00594885 
0.0032433 
0.000591421 
-0.00199333 
0.000345872 
0.00115149 
0.00125755 
0.00146227 
-0.000255973 
-0.00759923 
-2.62397e-05 
-0.00338587 
-0.0114555 
-0.00668985 
-0.00137894 
-0.00536139 
-0.0111979 
-0.0133965 
4.52362e-06 
-8.59625e-05 
6.4906e-06 
0.000225556 
0.000196978 
0.000280391 
0.000245643 
0.000296649 
0.000190952 
-6.10456e-05 
-9.38278e-05 
1.26636e-05 
5.8782e-05 
0.000205486 
4.25076e-05 
3.42991e-06 
8.4812e-05 
0.000189644 
0.000194473 
0.000111212 
7.37513e-05 
-0.0017024 
0.00475261 
0.00275447 
0.00371907 
-0.0138826 
-0.00776475 
-0.00221026 
-0.00819087 
-0.00388239 
-0.0079369 
-0.0119725 
-0.00630341 
0.0074662 
-0.00134387 
-0.0066778 
-0.00268179 
-0.00288446 
0.00233434 
-0.00340445 
-0.00438966 
-0.00412703 
-0.00458431 
-0.0030188 
-0.00271475 
ITEM: TIMESTEP
7000000
ITEM: NUMBER OF ATOMS
896
ITEM: BOX BOUNDS pp pp ff
-1.7153631884999999e+01 1.8003017117999999e+01
-1.7855467918999999e+01 1.7553981017000002e+01
-3.4618715923000003e+01 3.4618715923000003e+01
ITEM: ATOMS q 
-9.16723e-06 
-2.08751e-05 
-4.36773e-05 
-0.000110374 
3.69275e-05 
-6.30453e-05 
-0.000148657 
-0.000171594 
3.43249e-05 
-2.50644e-05 
-5.18173e-05 
0.000191447 
-2.92342e-05 
0.000341139 
-7.4797e-05 
1.40506e-05 
8.26202e-05 
5.82729e-05 
-0.000205522 
-0.000126271 
-2.83771e-05 
-4.02181e-05 
0.0001504 
-8.1883e-05 
-3.87749e-05 
3.77419e-05 
0.000265593 
0.000116019 
0.00222521 
0.00102934 
-0.000396625 
0.00101723 
0.00317006 
0.00460033 
0.00649439 
0.0112164 
-0.0129434 
0.00342958 
0.0085636 
-0.00491104 
-0.0140346 
-0.0163807 
-0.00299928 
-0.00503173 
-0.00405004 
0.00539207 
-0.000731641 
-0.00136723 
-0.00115849 
0.00355474 
0.000404752 
-0.0039126 
0.000863164 
1.32515e-05 
0.000444979 
4.44511e-05 
7.88616e-05 
0.000271324 
0.000221837 
4.21265e-05 
6.65296e-05 
0.000154993 
0.00019884 
2.31843e-05 
6.38781e-05 
0.000151542 
0.0001509 
0.0004069 
5.77941e-05 
0.000220517 
0.000254602 
0.000105728 
9.77416e-06 
0.000256908 
0.000194906 
0.000112297 
0.000163669 
0.000238921 
0.00029409 
0.000297758 
0.000236096 
-0.0297967 
-0.0155437 
-0.00341107 
-0.00232055 
-0.00448749 
-0.00249042 
-0.00310519 
-0.00408717 
-0.00501167 
-0.00777999 
-0.000330994 
-0.00365948 
-0.00791377 
-0.00404166 
-0.00834116 
-0.00164875 
-0.00180865 
0.00316844 
-0.00335357 
7.17266e-05 
0.00110687 
-0.0101011 
-0.0130454 
-0.00615463 
6.0087e-05 
6.0509e-05 
2.17911e-05 
1.30935e-05 
2.79338e-05 
3.81888e-05 
2.86272e-05 
4.82383e-05 
7.823e-05 
8.59512e-05 
0.000110136 
5.41154e-05 
-5.59622e-06 
-2.25608e-05 
3.72998e-05 
3.45869e-05 
5.52466e-05 
0.000160946 
6.36182e-05 
9.86742e-05 
0.000211285 
0.000183367 
2.57548e-05 
8.50586e-05 
0.000110593 
0.000124083 
8.45719e-05 
0.000173226 
-0.00264767 
0.000292867 
-0.00377703 
-0.000588481 
-0.000863825 
0.000280015 
0.000359223 
-0.000718717 
0.000734465 
0.000732855 
0.000995228 
-0.0118738 
-0.00542676 
0.000304357 
-0.000397357 
0.00233039 
0.00460926 
-0.00129642 
0.000153376 
8.84178e-05 
-0.00373079 
-0.00990244 
-0.0142607 
-0.000861599 
-0.00145608 
-0.000760824 
-0.00600046 
-0.00446108 
-0.000100037 
-9.69202e-05 
-6.73187e-05 
-0.000130965 
-0.000132786 
-8.24592e-06 
0.000107602 
4.67743e-06 
7.12681e-05 
0.000288823 
0.000181157 
0.000181675 
0.000285729 
0.000286196 
2.27151e-05 
0.000150602 
5.1087e-05 
6.42801e-05 
0.000125947 
7.5779e-07 
0.000361469 
0.000172849 
4.90062e-05 
3.6432e-05 
0.000291479 
0.000313719 
0.00012604 
7.11151e-05 
0.00557759 
0.00311102 
0.000954721 
-0.00303531 
0.00743125 
0.00136353 
0.00271916 
0.00581003 
0.00491935 
0.000511791 
-0.000503978 
-0.00130393 
-0.0054423 
-0.0170704 
-0.00103175 
-0.00721536 
-0.0226989 
-0.00613246 
-0.0129897 
-8.07538e-05 
-0.00664027 
0.00033923 
-0.00312505 
0.0020669 
0.00257114 
-0.00262777 
-0.00208636 
0.000293559 
0.000135933 
3.18724e-05 
-1.71289e-05 
-1.27193e-05 
0.000149794 
0.000117749 
8.31522e-06 
1.75242e-05 
0.000113783 
8.34183e-05 
5.19827e-05 
0.000108607 
9.73422e-05 
0.000116561 
-1.28114e-05 
-1.65405e-05 
7.57433e-06 
7.37818e-05 
5.52068e-05 
3.97419e-05 
0.000111441 
0.000276604 
0.000169715 
0.000156952 
0.000300211 
0.000403201 
0.000246519 
0.000339051 
0.000112653 
0.000392365 
0.000511354 
-0.00335792 
-0.00345878 
-0.00114611 
0.000321496 
0.00149743 
0.00119835 
0.000570039 
0.00206792 
0.000629531 
0.000891741 
-5.33915e-05 
-0.00211975 
0.00150532 
-0.000525461 
-0.00347218 
-0.00504743 
-0.00391101 
7.6468e-05 
0.000290539 
-0.0002405 
-0.00152864 
-0.00187176 
-0.00129523 
-0.00268317 
-0.00944344 
-0.00565227 
-0.00516935 
-0.0138607 
-0.0160044 
-0.00731562 
-0.00733835 
8.22911e-05 
0.000112248 
-8.7911e-05 
-2.26592e-05 
-2.0672e-06 
1.47091e-05 
-4.3086e-05 
-0.00010304 
-4.57269e-05 
2.51712e-05 
2.56498e-05 
-5.54587e-06 
5.22456e-06 
3.69736e-05 
0.000201839 
0.000385553 
0.000180186 
0.000254007 
0.000360126 
0.000391336 
0.000108939 
0.000205401 
0.000312729 
0.000230539 
5.06688e-05 
9.46675e-05 
0.000115043 
6.52744e-05 
0.000391941 
0.00040141 
0.000194879 
4.67299e-05 
-0.00173867 
0.00649251 
0.00119707 
-0.000503895 
-0.0010547 
-0.00443095 
0.00751397 
0.00320416 
-0.00285888 
-0.00416267 
0.000840385 
0.00179898 
-0.00230117 
-0.00290787 
-0.000303617 
-5.83153e-05 
-0.000532314 
-0.000507343 
-0.00527059 
-0.00528224 
-0.00814922 
-0.00787982 
-0.0111491 
-0.0155471 
-0.00327367 
-0.00850448 
-0.0120517 
-0.00348533 
-0.000833665 
-0.00151052 
-0.0013477 
-0.000418979 
5.28152e-05 
5.85756e-05 
0.000119783 
0.00026431 
0.000263953 
0.000376907 
0.000503996 
0.000505715 
0.000489565 
0.000434418 
0.000433305 
8.49988e-05 
2.46632e-05 
4.05186e-06 
2.09307e-05 
0.000331157 
0.000176818 
0.000128028 
0.000332872 
0.000549595 
0.000515162 
0.000539635 
0.000597692 
0.000611496 
0.000597024 
-0.00177491 
-0.000683279 
-0.000601519 
-0.000631882 
-0.0127566 
-0.00487117 
-0.00288388 
-0.00571475 
-0.0118136 
-0.0143077 
-0.00869303 
-0.00812234 
-0.005077 
-0.00550593 
-0.000163785 
2.31373e-05 
0.000465504 
0.00146135 
-0.00355877 
0.000266367 
0.00126294 
0.000760705 
-0.0212248 
-0.0226491 
-0.00922523 
-0.0158657 
-0.0112415 
-0.0118836 
0.000401014 
0.00035214 
0.000322268 
0.000240837 
0.000251946 
0.000125477 
2.46512e-05 
6.40233e-05 
1.18933e-05 
-1.37933e-05 
0.000512022 
0.000523399 
0.000257219 
0.000419646 
0.000419129 
0.000243283 
2.64984e-06 
0.000121778 
0.000108827 
1.38786e-05 
-2.08984e-05 
-2.00646e-05 
-1.13223e-05 
-4.80326e-06 
-0.00463272 
-0.0152416 
-0.00419283 
-0.00193453 
-0.0106439 
-0.00775535 
-0.00107863 
0.000957288 
0.00323474 
0.00140994 
-1.98369e-05 
0.00067821 
0.00105701 
0.000415229 
-0.0168221 
-0.014951 
-0.00924849 
-0.0138214 
-0.00235475 
-0.00223986 
0.000844602 
0.000889657 
0.000214534 
0.000112801 
0.00013181 
0.000381422 
0.000251923 
-0.000113841 
5.25598e-06 
2.37629e-05 
6.46324e-05 
5.74012e-05 
-8.68177e-07 
5.65433e-06 
2.62163e-05 
2.93183e-05 
-2.46869e-06 
2.42269e-06 
1.98283e-05 
2.30558e-05 
-3.27273e-06 
1.30843e-06 
1.6362e-05 
1.97946e-05 
8.59027e-05 
0.000183436 
0.000195386 
0.00010118 
3.57281e-05 
5.76588e-05 
6.07902e-05 
3.59843e-05 
2.75474e-05 
3.05789e-05 
3.07488e-05 
2.71856e-05 
2.42614e-05 
2.5821e-05 
2.65669e-05 
2.55399e-05 
-0.000743419 
-0.00068189 
-0.0014788 
-0.00119689 
-0.000999928 
-0.000713624 
-0.000724001 
-0.000743448 
-0.00087392 
-0.00068036 
-0.000688035 
-0.000659069 
-0.000737614 
-0.00058096 
-0.000607399 
-0.000589099 
-0.00126684 
-0.00474908 
-0.00315377 
-0.000723382 
-0.000800251 
-0.000727922 
-0.000661579 
-0.00067915 
-0.000658263 
-0.000607303 
-0.000631996 
-0.000623332 
-3.21433e-06 
5.25488e-07 
1.38486e-05 
1.75506e-05 
-2.59481e-06 
1.20406e-08 
1.1895e-05 
1.619e-05 
-2.07556e-06 
-1.16308e-06 
7.58094e-06 
-2.25638e-06 
2.30412e-05 
2.40368e-05 
2.55247e-05 
2.72047e-05 
2.56385e-05 
2.64543e-05 
2.99838e-05 
3.65548e-05 
2.53356e-05 
3.75837e-05 
4.27784e-05 
6.3299e-05 
-0.000626198 
-0.000505492 
-0.000542486 
-0.000553698 
-0.000440356 
-0.000435797 
-0.000502726 
-0.000591872 
0.00012374 
-0.000303675 
-0.000475275 
-0.0010793 
-0.000596363 
-0.000604092 
-0.000607693 
-0.000708217 
-0.000663785 
-0.000684954 
-0.0022311 
-0.00110274 
-0.00112663 
8.04958e-05 
0.000122292 
0.000126999 
7.70035e-05 
3.34307e-05 
4.25957e-05 
4.00747e-05 
2.95287e-05 
2.65342e-05 
2.71008e-05 
2.63391e-05 
2.41432e-05 
2.51254e-05 
2.46452e-05 
2.3365e-05 
2.1243e-05 
7.59067e-05 
0.000127355 
8.07601e-05 
4.59399e-05 
3.09841e-05 
3.82781e-05 
4.1973e-05 
3.69719e-05 
2.36038e-05 
2.64147e-05 
2.99146e-05 
2.58623e-05 
1.93491e-05 
2.07252e-05 
2.04809e-05 
1.52565e-05 
-0.000558164 
-0.000637247 
-0.000631317 
-0.000601182 
-0.000580315 
-0.00170627 
-0.00193866 
-0.000629892 
-0.000623005 
-0.000637787 
-0.000637558 
-0.000619257 
-0.000606041 
-0.000611758 
-0.000600319 
-0.000560457 
-0.000574183 
-0.000571163 
-0.000536559 
-0.0004863 
-0.000688721 
-0.000485896 
-0.00087455 
-0.000684923 
-0.000763433 
-0.00105908 
-0.000562257 
-0.000666705 
-0.000773455 
-0.000441157 
-0.000493696 
-0.000493216 
2.64816e-05 
2.42256e-05 
2.22987e-05 
1.98099e-05 
3.49691e-05 
2.77381e-05 
2.3157e-05 
1.83896e-05 
5.66173e-05 
3.72329e-05 
2.45615e-05 
1.77666e-05 
1.53205e-05 
1.53417e-05 
1.1986e-05 
4.99013e-06 
8.36839e-06 
8.76095e-06 
1.87367e-06 
-8.39126e-06 
4.27111e-06 
6.3773e-07 
-9.46029e-06 
3.80022e-06 
-0.000619669 
-0.000753931 
-0.0019909 
-0.000586287 
-0.000547871 
-0.000492471 
-0.000427344 
-0.00067259 
-0.000566493 
-0.000459462 
-0.000317056 
-0.00107444 
-0.000604019 
-0.000365895 
-1.97927e-05 
-0.000331689 
-0.000353461 
-0.000287219 
-0.000133482 
-0.000180987 
-5.51857e-05 
0.000645532 
0.000211779 
0.000402634 
4.99463e-05 
3.96704e-05 
4.35338e-05 
6.49349e-05 
4.67943e-05 
5.53152e-05 
6.76372e-05 
6.65356e-05 
2.99434e-05 
4.21467e-05 
5.06088e-05 
3.80494e-05 
1.4128e-05 
2.20013e-05 
2.31763e-05 
1.20341e-05 
7.16568e-05 
6.09671e-05 
5.72424e-05 
5.25702e-05 
7.21913e-05 
7.62457e-05 
6.55682e-05 
4.89256e-05 
3.84626e-05 
5.44456e-05 
4.53131e-05 
2.36916e-05 
9.7774e-06 
2.07092e-05 
1.54398e-05 
2.74665e-06 
3.11986e-05 
2.89437e-05 
1.34971e-05 
-1.5003e-07 
-0.00124137 
-0.00104763 
-0.000663404 
-0.000373497 
-0.00150372 
-0.00100387 
-0.00100717 
-0.00201651 
-0.00133222 
-0.00166785 
-0.00210292 
-0.00193912 
-0.000743902 
-0.00113942 
-0.00131727 
-0.000870674 
-0.00034211 
-0.000534925 
-0.000519976 
-0.000264868 
-0.00193299 
-0.00119 
-0.000782315 
-0.000699621 
-0.00180959 
-0.00186985 
-0.00110668 
-0.000683438 
-0.000763162 
-0.00107972 
-0.000690146 
-0.000284791 
-0.000193347 
-0.000341126 
-0.000212146 
-4.52463e-05 
5.39977e-07 
6.04739e-06 
3.66306e-06 
-5.65845e-06 
-1.58386e-05 
-9.4403e-06 
-1.30137e-05 
-2.18632e-05 
-1.03314e-05 
-2.55437e-05 
-2.70923e-05 
-3.07861e-05 
-7.44986e-06 
-7.44286e-07 
-2.56172e-06 
-8.24048e-06 
-2.1543e-05 
-1.45065e-05 
-1.30362e-05 
-1.43799e-05 
-3.03309e-05 
-2.45983e-05 
-1.86772e-05 
-9.28546e-06 
-7.10642e-06 
-9.11295e-06 
3.46771e-06 
-0.000141572 
0.000183974 
0.00107257 
-6.32703e-05 
-0.000175937 
-0.000120186 
4.06331e-05 
0.00028384 
0.000123424 
0.000170191 
0.00032016 
0.00112447 
0.000571338 
0.000558833 
0.000914346 
6.9113e-05 
-2.07737e-05 
5.97337e-06 
4.83649e-05 
0.000277489 
0.000156402 
0.000108688 
8.00881e-05 
0.00054731 
0.000302641 
0.000158618 
-2.58951e-06 
1.68446e-05 
-9.75335e-07 
-2.37307e-06 
2.13658e-05 
5.84436e-06 
3.83447e-06 
1.47858e-05 
5.39156e-06 
1.59726e-06 
2.81255e-06 
1.65632e-07 
-1.23982e-06 
-3.12916e-06 
-8.55833e-06 
-5.96317e-07 
1.12233e-05 
2.71669e-06 
3.67535e-06 
9.36614e-06 
1.37209e-05 
2.33401e-06 
4.8567e-06 
8.84514e-06 
1.01567e-05 
1.36787e-06 
3.40886e-06 
6.78624e-06 
7.5251e-06 
-0.000191279 
0.000135148 
0.000205118 
-2.96239e-05 
-0.000270251 
-0.0001398 
-5.1078e-05 
-0.000129858 
-0.000134786 
-0.000135125 
-9.37693e-05 
-0.000121874 
-2.95879e-05 
-5.54661e-05 
-8.32088e-05 
-0.000120192 
-0.000276354 
-0.000324039 
-0.000455893 
-0.000831869 
-0.00026501 
-0.000409345 
-0.000600575 
-0.000889947 
-0.000217465 
-0.00031178 
-0.000460438 
-0.000727643 
-0.000205216 
-0.000258978 
-0.000368545 
-0.000611406 
-4.23578e-06 
-2.93551e-06 
-1.79363e-06 
-6.89554e-06 
-2.94405e-06 
-6.28237e-08 
-3.82681e-06 
8.34096e-07 
1.15986e-05 
1.38907e-06 
2.91611e-06 
5.78458e-06 
6.07477e-06 
3.24036e-06 
3.50793e-06 
5.33307e-06 
3.57808e-06 
9.13304e-06 
3.86494e-06 
3.05971e-06 
-2.5564e-06 
-1.23632e-06 
-2.86068e-05 
-9.0935e-05 
-0.000143828 
-3.26683e-05 
-5.28656e-05 
-0.000134441 
-0.000200894 
-0.000284346 
-0.000146816 
-0.000236011 
-0.000370549 
-0.000216087 
-0.000245407 
-0.000327836 
-0.000523649 
-0.000238754 
-0.000243819 
-0.000291312 
-0.000365022 
-0.000240129 
-0.0002119 
-0.000187885 
0.000139403 
