ITEM: TIMESTEP
5000000
ITEM: NUMBER OF ATOMS
896
ITEM: BOX BOUNDS pp pp ff
-1.7153631884999999e+01 1.8003017117999999e+01
-1.7855467918999999e+01 1.7553981017000002e+01
-3.4618715923000003e+01 3.4618715923000003e+01
ITEM: ATOMS q 
0 
0 
0 
0 
0 
0 
0 
0 
0 
0 
0 
0 
0 
0 
0 
0 
0 
0 
0 
0 
0 
0 
0 
0 
0 
0 
0 
0 
0 
0 
0 
0 
0 
0 
0 
0 
0 
0 
0 
0 
0 
0 
0 
0 
0 
0 
0 
0 
0 
0 
0 
0 
0 
0 
0 
0 
0 
0 
0 
0 
0 
0 
0 
0 
0 
0 
0 
0 
0 
0 
0 
0 
0 
0 
0 
0 
0 
0 
0 
0 
0 
0 
0 
0 
0 
0 
0 
0 
0 
0 
0 
0 
0 
0 
0 
0 
0 
0 
0 
0 
0 
0 
0 
0 
0 
0 
0 
0 
0 
0 
0 
0 
0 
0 
0 
0 
0 
0 
0 
0 
0 
0 
0 
0 
0 
0 
0 
0 
0 
0 
0 
0 
0 
0 
0 
0 
0 
0 
0 
0 
0 
0 
0 
0 
0 
0 
0 
0 
0 
0 
0 
0 
0 
0 
0 
0 
0 
0 
0 
0 
0 
0 
0 
0 
0 
0 
0 
0 
0 
0 
0 
0 
0 
0 
0 
0 
0 
0 
0 
0 
0 
0 
0 
0 
0 
0 
0 
0 
0 
0 
0 
0 
0 
0 
0 
0 
0 
0 
0 
0 
0 
0 
0 
0 
0 
0 
0 
0 
0 
0 
0 
0 
0 
0 
0 
0 
0 
0 
0 
0 
0 
0 
0 
0 
0 
0 
0 
0 
0 
0 
0 
0 
0 
0 
0 
0 
0 
0 
0 
0 
0 
0 
0 
0 
0 
0 
0 
0 
0 
0 
0 
0 
0 
0 
0 
0 
0 
0 
0 
0 
0 
0 
0 
0 
0 
0 
0 
0 
0 
0 
0 
0 
0 
0 
0 
0 
0 
0 
0 
0 
0 
0 
0 
0 
0 
0 
0 
0 
0 
0 
0 
0 
0 
0 
0 
0 
0 
0 
0 
0 
0 
0 
0 
0 
0 
0 
0 
0 
0 
0 
0 
0 
0 
0 
0 
0 
0 
0 
0 
0 
0 
0 
0 
0 
0 
0 
0 
0 
0 
0 
0 
0 
0 
0 
0 
0 
0 
0 
0 
0 
0 
0 
0 
0 
0 
0 
0 
0 
0 
0 
0 
0 
0 
0 
0 
0 
0 
0 
0 
0 
0 
0 
0 
0 
0 
0 
0 
0 
0 
0 
0 
0 
0 
0 
0 
0 
0 
0 
0 
0 
0 
0 
0 
0 
0 
0 
0 
0 
0 
0 
0 
0 
0 
0 
0 
0 
0 
0 
0 
0 
0 
0 
0 
0 
0 
0 
0 
0 
0 
0 
0 
0 
0 
0 
0 
0 
0 
0 
0 
0 
0 
0 
0 
0 
0 
0 
0 
0 
0 
0 
0 
0 
0 
0 
0 
0 
0 
0 
0 
0 
0 
0 
0 
0 
0 
0 
0 
0 
0 
0 
0 
0 
0 
0 
0 
0 
0 
0 
0 
0 
0 
0 
0 
0 
0 
0 
0 
0 
0 
0 
0 
0 
0 
0 
0 
0 
0 
0 
0 
0 
0 
0 
0 
0 
0 
0 
0 
0 
0 
0 
0 
0 
0 
0 
0 
0 
0 
0 
0 
0 
0 
0 
0 
0 
0 
0 
0 
0 
0 
0 
0 
0 
0 
0 
0 
0 
0 
0 
0 
0 
0 
0 
0 
0 
0 
0 
0 
0 
0 
0 
0 
0 
0 
0 
0 
0 
0 
0 
0 
0 
0 
0 
0 
0 
0 
0 
0 
0 
0 
0 
0 
0 
0 
0 
0 
0 
0 
0 
0 
0 
0 
0 
0 
0 
0 
0 
0 
0 
0 
0 
0 
0 
0 
0 
0 
0 
0 
0 
0 
0 
0 
0 
0 
0 
0 
0 
0 
0 
0 
0 
0 
0 
0 
0 
0 
0 
0 
0 
0 
0 
0 
0 
0 
0 
0 
0 
0 
0 
0 
0 
0 
0 
0 
0 
0 
0 
0 
0 
0 
0 
0 
0 
0 
0 
0 
0 
0 
0 
0 
0 
0 
0 
0 
0 
0 
0 
0 
0 
0 
0 
0 
0 
0 
0 
0 
0 
0 
0 
0 
0 
0 
0 
0 
0 
0 
0 
0 
0 
0 
0 
0 
0 
0 
0 
0 
0 
0 
0 
0 
0 
0 
0 
0 
0 
0 
0 
0 
0 
0 
0 
0 
0 
0 
0 
0 
0 
0 
0 
0 
0 
0 
0 
0 
0 
0 
0 
0 
0 
0 
0 
0 
0 
0 
0 
0 
0 
0 
0 
0 
0 
0 
0 
0 
0 
0 
0 
0 
0 
0 
0 
0 
0 
0 
0 
0 
0 
0 
0 
0 
0 
0 
0 
0 
0 
0 
0 
0 
0 
0 
0 
0 
0 
0 
0 
0 
0 
0 
0 
0 
0 
0 
0 
0 
0 
0 
0 
0 
0 
0 
0 
0 
0 
0 
0 
0 
0 
0 
0 
0 
0 
0 
0 
0 
0 
0 
0 
0 
0 
0 
0 
0 
0 
0 
0 
0 
0 
0 
0 
0 
0 
0 
0 
0 
0 
0 
0 
0 
0 
0 
0 
0 
0 
0 
0 
0 
0 
0 
0 
0 
0 
0 
0 
0 
0 
0 
0 
0 
0 
0 
0 
0 
0 
0 
0 
0 
0 
0 
0 
0 
0 
0 
0 
0 
0 
0 
0 
0 
0 
0 
0 
0 
0 
0 
0 
0 
0 
0 
0 
0 
0 
0 
0 
0 
0 
0 
0 
0 
0 
0 
0 
0 
0 
0 
0 
0 
0 
0 
0 
0 
0 
0 
0 
0 
0 
0 
0 
0 
0 
0 
0 
0 
0 
0 
0 
0 
0 
0 
0 
0 
0 
0 
0 
0 
0 
0 
0 
ITEM: TIMESTEP
6000000
ITEM: NUMBER OF ATOMS
896
ITEM: BOX BOUNDS pp pp ff
-1.7153631884999999e+01 1.8003017117999999e+01
-1.7855467918999999e+01 1.7553981017000002e+01
-3.4618715923000003e+01 3.4618715923000003e+01
ITEM: ATOMS q 
-4.62148e-05 
-5.18483e-05 
-6.53479e-06 
8.55437e-06 
-4.07904e-05 
-2.95892e-05 
-2.10098e-06 
7.3514e-06 
-4.13513e-05 
-2.80316e-05 
-1.40393e-06 
9.46912e-06 
-2.57059e-05 
4.45772e-06 
1.58473e-05 
2.47908e-05 
3.52418e-05 
2.65411e-05 
1.45966e-05 
1.72837e-05 
2.17062e-05 
1.98192e-05 
1.60049e-05 
1.46935e-05 
1.72892e-05 
1.75492e-05 
1.85573e-05 
1.92174e-05 
-0.0016495 
-0.00152668 
-0.0015684 
-0.00118202 
-0.00154995 
-0.00103539 
-0.00104655 
-0.00106174 
-0.00160321 
-0.00103565 
-0.0010347 
-0.00106959 
-0.00115428 
-0.00113368 
-0.00126738 
-0.00196983 
-0.00212459 
-0.00110735 
-0.00118778 
-0.00125079 
-0.00108583 
-0.00110417 
-0.00115013 
-0.00111249 
-0.00113782 
-4.04158e-05 
2.37925e-05 
-3.59371e-05 
-1.3365e-05 
3.25774e-05 
8.80781e-05 
-1.27875e-05 
4.09435e-05 
0.000151233 
0.000281911 
2.04238e-05 
8.2166e-05 
0.00031972 
0.000355597 
2.86981e-05 
2.23009e-05 
8.11247e-05 
3.89383e-05 
3.31848e-05 
4.46247e-05 
0.000245691 
0.00012184 
8.96638e-05 
0.000129908 
0.000443531 
0.000360658 
0.000269675 
0.000304753 
-0.00198189 
-0.00121992 
-0.00355362 
-0.00160443 
-0.00151514 
-0.00167365 
-0.0132954 
-0.00419759 
-0.00318177 
-0.00421938 
-0.00845889 
-0.0155179 
-0.00740651 
-0.0176033 
-0.00117283 
-0.00146596 
-0.00124282 
-0.00124206 
-0.00273958 
-0.00162454 
-0.00164442 
-0.0167685 
-0.00365211 
-0.00282566 
2.73962e-05 
3.13452e-05 
3.13641e-05 
2.76604e-05 
2.25344e-05 
2.53895e-05 
2.72362e-05 
2.48304e-05 
1.96596e-05 
2.08824e-05 
2.32796e-05 
2.34122e-05 
2.10241e-05 
2.38405e-05 
2.43287e-05 
1.98503e-05 
1.77627e-05 
1.84564e-05 
2.54474e-05 
2.41001e-05 
2.28648e-05 
2.29707e-05 
2.58879e-05 
2.49401e-05 
2.57417e-05 
2.91101e-05 
2.89648e-05 
3.30422e-05 
-0.00143003 
-0.00121595 
-0.00115748 
-0.00145883 
-0.00208043 
-0.00193439 
-0.00138399 
-0.00125893 
-0.00132039 
-0.00132253 
-0.00129291 
-0.00120619 
-0.00124143 
-0.00127372 
-0.00129177 
-0.00123681 
-0.00129028 
-0.00132385 
-0.0016693 
-0.00146357 
-0.0012833 
-0.00125048 
-0.00119584 
-0.00132119 
-0.0012944 
-0.00128485 
-0.00139823 
-0.00145261 
2.34757e-05 
2.73689e-05 
4.13691e-05 
2.9237e-05 
3.20551e-05 
4.06163e-05 
0.000100015 
5.87288e-05 
5.78141e-05 
7.99393e-05 
0.000216705 
0.000148961 
0.000133353 
0.00018941 
3.13069e-05 
4.42123e-05 
4.5301e-05 
3.9166e-05 
4.9512e-05 
7.06729e-05 
7.46161e-05 
5.60261e-05 
7.18552e-05 
8.30584e-05 
0.000139905 
8.30528e-05 
7.29279e-05 
4.30839e-05 
-0.00118983 
-0.00141821 
-0.00207728 
-0.00430345 
-0.00124145 
-0.00136011 
-0.00146966 
-0.00134262 
-0.00140511 
-0.00154563 
-0.00214032 
-0.00172832 
-0.00173255 
-0.00193886 
-0.00452107 
-0.00287044 
-0.00264028 
-0.00294333 
-0.00143774 
-0.00168359 
-0.00162476 
-0.00185975 
-0.00199255 
-0.00192739 
-0.00266993 
-0.00217344 
-0.00191577 
-0.00243109 
1.41437e-05 
5.91719e-06 
5.15556e-07 
8.28776e-06 
2.19412e-05 
1.65763e-05 
1.50446e-05 
1.89308e-05 
3.12573e-05 
2.51259e-05 
2.49553e-05 
3.3121e-05 
4.30132e-05 
4.6602e-05 
7.50045e-06 
-6.093e-06 
3.5123e-06 
1.58845e-05 
1.86188e-05 
1.41238e-05 
1.70931e-05 
1.97887e-05 
3.25068e-05 
2.29651e-05 
2.28958e-05 
2.75833e-05 
4.39439e-05 
4.01717e-05 
1.90622e-05 
2.16684e-05 
2.53377e-05 
-0.00113874 
-0.00121916 
-0.00136551 
-0.00107108 
-0.00120245 
-0.00114156 
-0.00101718 
-0.00118074 
-0.00108642 
-0.00106366 
-0.00113456 
-0.00136994 
-0.00125012 
-0.00122791 
-0.00134818 
-0.00158429 
-0.00158824 
-0.00106888 
-0.00134468 
-0.00166152 
-0.00132785 
-0.00113678 
-0.00111856 
-0.00118436 
-0.00119719 
-0.00131456 
-0.00119546 
-0.00118924 
-0.00122672 
-0.00145625 
-0.00137253 
5.43207e-05 
7.09037e-05 
0.000102936 
8.84238e-05 
0.000104925 
0.000155116 
0.000127806 
0.000150015 
0.000191112 
0.000187779 
4.42116e-05 
0.000120577 
0.000153298 
0.000122265 
6.97951e-05 
5.22322e-05 
0.000145732 
9.48627e-05 
8.11171e-05 
0.00010212 
0.000169436 
0.000153727 
0.000125662 
0.000129148 
0.0001101 
0.00011612 
0.000106464 
0.000116935 
4.44898e-05 
8.89413e-05 
0.000140695 
0.000166398 
-0.00172498 
-0.00266108 
-0.00345658 
-0.00143689 
-0.00185837 
-0.00193361 
-0.00356107 
-0.00271183 
-0.00279328 
-0.0036811 
-0.00642554 
-0.00649841 
-0.00649066 
-0.00537125 
-0.00152026 
-0.00555058 
-0.00441728 
-0.00132329 
-0.00183353 
-0.00151489 
-0.00301426 
-0.00219441 
-0.00195297 
-0.00244753 
-0.00302256 
-0.00348957 
-0.00341034 
-0.00476371 
-0.000196261 
-0.00125103 
-0.00409517 
-0.00485352 
1.82529e-05 
3.36222e-05 
3.24087e-05 
2.34204e-05 
2.73873e-05 
2.39877e-05 
2.1785e-05 
2.18535e-05 
2.08673e-05 
2.97774e-05 
2.59526e-05 
3.07865e-05 
4.07503e-05 
3.67966e-05 
1.44369e-05 
2.37768e-05 
2.6897e-05 
2.20941e-05 
6.82904e-06 
1.94087e-05 
1.93303e-05 
1.52819e-05 
3.31437e-06 
1.95103e-05 
1.56205e-05 
-0.00144098 
-0.00213346 
-0.00230328 
-0.00156209 
-0.00123126 
-0.0013372 
-0.00136336 
-0.00124827 
-0.00119278 
-0.00118868 
-0.00117895 
-0.00113266 
-0.00121504 
-0.00116466 
-0.00149335 
-0.00214395 
-0.0019521 
-0.00178914 
-0.0012126 
-0.00125812 
-0.00118448 
-0.00161493 
-0.00110605 
-0.00111211 
-0.00108761 
-0.0016056 
-0.00109729 
-0.00110551 
2.99396e-05 
5.76569e-05 
4.77289e-05 
5.93217e-05 
0.000113153 
9.42644e-05 
0.000109353 
0.000158953 
0.000152014 
0.000179005 
2.56536e-05 
9.48111e-06 
4.77868e-05 
3.16639e-05 
2.62233e-05 
2.70348e-05 
8.55125e-05 
5.78018e-05 
4.86588e-05 
4.76248e-05 
0.000147977 
9.4336e-05 
6.95595e-05 
6.90171e-05 
-0.00138685 
-0.00120297 
-0.00210602 
-0.00152568 
-0.00139205 
-0.00155166 
-0.00382214 
-0.00248298 
-0.00203307 
-0.00228017 
-0.0048795 
-0.00384406 
-0.00294421 
-0.00316227 
-0.00116886 
-0.00188169 
-0.0014619 
-0.00126341 
-0.0013038 
-0.00291832 
-0.00194322 
-0.00161289 
-0.00185249 
-0.00535734 
-0.00235456 
-0.00181286 
-0.00233517 
-0.00302333 
3.61438e-05 
6.72177e-05 
0.000193565 
0.000136696 
3.72013e-05 
-9.9343e-06 
4.7676e-06 
-9.9339e-06 
4.45184e-05 
-3.84237e-05 
-3.92228e-05 
-1.42306e-05 
3.44267e-05 
-6.93001e-05 
-3.32942e-05 
3.09115e-05 
0.000188145 
0.00032837 
0.00032528 
0.000202093 
-9.889e-06 
5.46802e-05 
6.27887e-05 
-1.25383e-05 
-1.4348e-05 
-4.22802e-05 
-7.51254e-05 
-0.000115692 
3.00633e-05 
-3.65036e-05 
-9.98692e-05 
-5.33594e-05 
-5.52322e-05 
-0.00125521 
-0.0112528 
-0.00462849 
0.000678056 
-0.000341396 
-0.000874875 
-0.000676698 
-0.000983511 
0.000170947 
-0.00158873 
-0.00189129 
-0.00754492 
2.21233e-05 
-0.0011921 
0.000802 
-0.00556403 
-0.0112665 
-0.00388864 
0.00406212 
0.00224122 
-0.00164382 
-0.000916077 
0.00269725 
0.000798819 
0.000972821 
0.00154391 
0.00929138 
0.000107878 
-0.00013189 
8.0507e-06 
0.000187616 
0.000134937 
5.18731e-06 
0.000129695 
0.000187845 
-4.94244e-06 
1.27943e-06 
5.22931e-05 
3.70215e-05 
0.000303225 
0.00014223 
0.000101084 
0.000182455 
0.000268536 
0.00031046 
0.000248634 
0.000197204 
7.7803e-05 
0.00016047 
0.000151284 
7.79465e-05 
-0.00549819 
-0.0018667 
-0.000533959 
-0.0144915 
-0.00216875 
-0.00052435 
-0.0162914 
-0.00774161 
-0.00238628 
-0.00153487 
-0.00223657 
-0.0022215 
-0.00716145 
-0.00101337 
-0.00267624 
-0.00647023 
-0.00718874 
-0.00505978 
-0.00269368 
-0.00323095 
-0.0033469 
0.000265498 
0.000289941 
0.000294923 
0.000322417 
9.35062e-05 
0.000252635 
0.000339601 
0.000276354 
-7.42e-05 
7.07074e-05 
0.000188435 
0.000258068 
-5.55494e-06 
8.00863e-06 
0.000232058 
0.000422226 
0.000221436 
0.000137308 
4.88194e-05 
2.22829e-05 
0.000239638 
0.000182802 
7.88617e-05 
9.05503e-05 
0.000321349 
0.000208582 
0.000153405 
0.000225822 
0.000609744 
0.000456893 
0.000388159 
0.000482352 
-0.0064369 
-0.00249966 
0.00359007 
0.00350587 
-0.0135107 
-0.00871726 
-0.00587472 
-0.00582733 
-0.00627138 
-0.0122873 
-0.0083632 
-0.00618301 
-0.00120125 
-0.00418523 
-0.00537537 
-0.00727565 
-0.00397108 
-0.00371271 
-0.0110298 
-0.0260175 
-0.00232815 
-0.00114935 
0.00117229 
-0.00302901 
-0.00167389 
0.00174816 
-0.00327994 
0.000362448 
-0.00203066 
-0.0166011 
-0.00734813 
-0.00556515 
0.00017389 
0.000146204 
0.000327346 
0.000343313 
0.000165819 
0.00019304 
0.00020273 
0.000148705 
7.65812e-05 
0.000114634 
9.73352e-05 
5.33921e-05 
0.000413383 
0.000546955 
0.00053308 
0.000504456 
0.000157569 
0.000279754 
0.000360597 
0.000251952 
4.75851e-05 
9.53254e-05 
0.000105348 
4.69504e-05 
-0.00515014 
-0.00425787 
-0.00284004 
-0.00483086 
-0.00678552 
-0.0172509 
-0.0086843 
-0.00354535 
-0.00417924 
-0.00340958 
-0.00256139 
-0.0026767 
-0.00262741 
-0.00224144 
-0.00218292 
-0.00910967 
-0.0116561 
-0.0117561 
-0.00243375 
-0.00584477 
-0.0150387 
-0.00187758 
-0.00200489 
-0.00188392 
1.95554e-05 
4.47266e-05 
0.000108721 
0.000237931 
0.000204266 
0.000208327 
0.000358278 
0.000417201 
0.000254105 
0.000313925 
0.000425195 
0.000396004 
0.000400256 
0.000306819 
0.000342117 
0.00035798 
0.000234778 
0.000112574 
0.000114311 
0.000150865 
0.000377698 
0.000281092 
0.000188362 
0.000179319 
0.000373921 
0.000335373 
0.000229704 
0.000210658 
0.000428198 
0.000388774 
0.0003305 
0.000348322 
0.000193215 
0.000163653 
0.000120483 
0.000254387 
0.00447683 
-0.00152421 
-0.00400061 
-0.00832328 
0.000252579 
-0.00156263 
-0.00271173 
-0.00369721 
-0.0170729 
-0.0153688 
-0.0150356 
-0.0122723 
-0.00375037 
-0.0161675 
-0.0115407 
-0.00279485 
-0.00561969 
-0.00502204 
-0.0102099 
-0.0173484 
-0.0029381 
-0.00128199 
-0.00332251 
-0.00443662 
-0.00249518 
-0.0039796 
-0.00342967 
-0.00306425 
-0.0065683 
-0.00460815 
-0.00421335 
-0.000284453 
-0.0105806 
-0.0103706 
-0.00450216 
-0.00543922 
0.000540584 
0.000445696 
0.000338943 
0.000253435 
0.000251802 
0.000358697 
0.000205827 
7.8223e-05 
4.18982e-05 
9.64072e-05 
5.61922e-05 
1.25282e-06 
0.000189244 
0.000325357 
0.000337431 
0.000265073 
3.43303e-05 
9.16881e-05 
0.000132305 
8.84692e-05 
-6.95961e-06 
8.192e-06 
2.18119e-05 
9.65288e-06 
0.000315516 
0.00012791 
3.48465e-05 
-0.0238005 
-0.00490694 
-0.00158575 
-0.00781791 
-0.00426779 
-0.00741231 
-0.00173277 
-0.00348937 
-0.00370906 
-0.000160796 
-0.000112675 
-0.00130714 
-0.000886583 
-0.00060147 
-0.000920816 
-0.0028721 
-0.0069383 
-0.0128449 
-0.0125382 
-0.000204084 
-0.00180812 
-0.00478232 
-0.00243385 
-0.00111589 
-0.000915271 
-0.00142571 
-0.0018894 
0.000202869 
0.000232876 
0.000326746 
0.000208958 
0.000330567 
0.00040548 
0.000120377 
0.000200319 
0.000155419 
0.000131128 
8.0058e-05 
0.000153936 
0.000324994 
0.000186235 
0.000127042 
0.000160183 
0.000575211 
0.000451083 
0.000296349 
0.000311013 
0.000228776 
0.000404816 
0.000307266 
0.000275428 
0.000206399 
0.000200944 
0.000254459 
0.000468808 
-0.00777094 
-0.0056134 
-0.00432993 
-0.0070341 
-0.00352501 
-0.00636056 
-0.0114313 
-0.0318443 
0.00196703 
-0.00123986 
-0.00828562 
-0.00293492 
-0.0025825 
0.00142114 
0.000316423 
-0.00585494 
-0.00525353 
-0.00205318 
-0.00114953 
-0.00121621 
-0.0157494 
-0.00528589 
-0.00168864 
-0.00308615 
-0.00388725 
-0.00507922 
-0.00383874 
-0.0054528 
-0.00597889 
-0.00368639 
-0.0047724 
-0.0212027 
0.000272298 
0.000217229 
0.000232176 
0.000216654 
0.000203814 
0.000152171 
7.62492e-05 
9.85781e-05 
6.34473e-05 
0.000255524 
0.00027786 
0.000387665 
0.000576063 
0.000204462 
0.000282912 
0.000380153 
0.000379843 
9.00212e-05 
0.000167485 
0.000184021 
0.000116296 
-0.00738684 
-0.00523252 
-0.00533992 
-0.00480135 
-0.00295796 
-0.0035691 
-0.00415818 
-0.00432382 
-0.00241277 
-0.00246311 
-0.00305597 
-0.00305146 
-0.00669079 
-0.00589062 
-0.0204028 
-0.0210369 
-0.00701554 
-0.0120957 
-0.0118126 
-0.00786855 
-0.0029399 
-0.00477802 
-0.00448253 
-0.00313682 
ITEM: TIMESTEP
7000000
ITEM: NUMBER OF ATOMS
896
ITEM: BOX BOUNDS pp pp ff
-1.7153631884999999e+01 1.8003017117999999e+01
-1.7855467918999999e+01 1.7553981017000002e+01
-3.4618715923000003e+01 3.4618715923000003e+01
ITEM: ATOMS q 
4.51485e-05 
1.42481e-05 
0.000101396 
0.000149531 
0.000102047 
6.19525e-05 
0.00015414 
0.000245031 
0.000118369 
9.93568e-05 
0.000236424 
0.000306301 
7.31292e-05 
0.000212768 
0.000166847 
0.000141328 
0.000154525 
0.000173644 
0.000279743 
0.00021273 
0.000213051 
0.000246359 
0.000374819 
0.000335011 
0.000297393 
0.000285252 
0.000268957 
0.000239738 
-0.00408298 
-0.00308589 
-0.00307221 
-0.00301086 
-0.00560873 
-0.00348995 
-0.00358282 
-0.00503361 
-0.00706031 
-0.00583966 
-0.00779763 
-0.0134718 
-0.00474168 
-0.00946275 
-0.00307122 
-0.00328128 
-0.00348741 
-0.00479817 
-0.0035372 
-0.00367525 
-0.00836025 
-0.00539485 
-0.00466742 
-0.00423606 
-0.00375418 
6.09e-06 
0.000193226 
-4.56989e-05 
-2.2871e-05 
9.88012e-05 
0.000132787 
3.08676e-05 
6.56745e-05 
0.000177035 
0.000300503 
0.000160476 
0.000218613 
0.000420579 
0.000303143 
0.000186232 
0.000174473 
0.000130684 
0.000107323 
0.000105605 
0.000100998 
0.000208545 
0.000116748 
8.45078e-05 
0.000131827 
0.000155359 
0.000168353 
0.000143659 
0.000195796 
-0.00535888 
-0.000150715 
-0.00515525 
-0.00344195 
-0.00109725 
-0.00258829 
-0.00756488 
-0.000851031 
-0.00528657 
-0.0037016 
-0.020082 
-0.0249871 
-0.0056917 
0.00393864 
-0.000605043 
0.000166829 
0.000651575 
-0.00178533 
9.33111e-06 
0.00106906 
-0.00110091 
-0.000464896 
-0.00415977 
-0.00342349 
0.000176689 
0.000157379 
0.000170009 
0.00018707 
0.000242513 
0.000212188 
0.000218339 
0.000253178 
0.000279879 
0.000278825 
0.000290916 
0.000351208 
0.000303922 
0.000374651 
0.000182781 
0.000161655 
0.000162408 
0.000167114 
0.000247374 
0.00020783 
0.00019772 
0.000211796 
0.000358304 
0.000288061 
0.00026617 
0.000323766 
0.000457292 
0.000457781 
-0.00333797 
-0.00437714 
-0.00554188 
-0.00352858 
-0.00381885 
-0.00391899 
-0.00359601 
-0.00462821 
-0.00410345 
-0.00407118 
-0.00439251 
-0.0064187 
-0.00549964 
-0.00521711 
-0.00674661 
-0.00821141 
-0.00903764 
-0.00347948 
-0.0037868 
-0.00354058 
-0.0040977 
-0.00365279 
-0.00335692 
-0.00593247 
-0.00432248 
-0.0038717 
-0.00819954 
-0.00656902 
0.000246168 
0.000409561 
0.000193131 
0.000265901 
0.000365998 
0.000409372 
0.000165421 
0.000212113 
0.000341393 
0.000360989 
0.000218472 
0.000188707 
0.00023368 
0.000197548 
0.000502898 
0.000622505 
0.000509996 
0.000574534 
0.000716938 
0.000623747 
0.000473224 
0.000523622 
0.000499583 
0.000375501 
0.000211238 
0.000340104 
0.000299835 
0.000274288 
-0.00388731 
-0.00473179 
-0.00129263 
-0.00454432 
-0.00803953 
-0.0108415 
-0.00607899 
-0.00678846 
-0.00631949 
-0.00716497 
-0.0036527 
-0.0052157 
-0.0117191 
-0.0190667 
-0.00192614 
-0.00274929 
-0.00522226 
-0.00125641 
-0.0120519 
-0.013261 
-0.0218854 
-0.0262248 
-0.0094116 
-0.00897012 
-0.00816618 
-0.00221942 
-0.00357984 
-0.00338375 
0.000152729 
0.000137079 
0.000127934 
0.000122327 
0.000189561 
0.000158705 
0.000140892 
0.000138741 
0.000279126 
0.000198436 
0.000168694 
0.000167888 
0.000324291 
0.000236707 
0.000106464 
0.000100751 
9.24959e-05 
8.74492e-05 
0.000123826 
0.000109081 
0.000100263 
0.000125841 
0.00014452 
0.000128307 
0.000144689 
0.000201019 
0.000142545 
0.000180263 
8.10431e-05 
0.000141174 
0.000288214 
-0.00298942 
-0.00334286 
-0.00405767 
-0.00264606 
-0.00297011 
-0.00257523 
-0.00198321 
-0.00283191 
-0.0025051 
-0.00213398 
-0.00206953 
-0.00345043 
-0.00267275 
-0.00228862 
-0.00191225 
-0.00410835 
-0.002734 
-0.0017133 
-0.00205559 
-0.00173715 
-0.00122823 
-0.00180474 
-0.00156793 
-0.00126678 
-0.00174268 
-0.00225907 
-0.00206591 
-0.00224773 
-0.0070457 
-0.00267063 
-0.00585955 
0.000526666 
0.000196606 
0.000556245 
0.000501684 
0.000261839 
0.000174817 
0.000291522 
0.000337448 
0.00020953 
0.000146248 
0.000285823 
0.000217763 
0.000179375 
0.000200865 
0.000127313 
0.00017465 
6.14753e-05 
7.38866e-05 
8.215e-05 
6.12753e-05 
0.000130509 
7.82143e-05 
6.21948e-05 
0.000116757 
0.000182096 
0.000149559 
0.000167362 
0.000266839 
0.000271317 
0.000106979 
0.000118009 
0.00034258 
-0.00927963 
-0.0160368 
-0.00260695 
-0.00454422 
-0.00680894 
-0.00278645 
-0.00496815 
-0.00389039 
7.08895e-05 
0.00239155 
-0.00260306 
-0.002969 
-0.000116225 
-0.00357922 
-0.00111927 
-0.000808549 
-0.00421168 
-0.00169123 
-0.00232856 
-0.00614891 
-1.47704e-06 
0.000312559 
0.000235678 
-0.00327879 
-0.00307683 
-0.000196654 
0.00171974 
0.000194704 
-0.00127227 
-0.00370189 
-0.00212631 
-0.00826091 
7.8121e-05 
7.96207e-05 
8.88226e-05 
0.000105803 
0.000113282 
0.000166216 
0.000244091 
0.000262422 
0.000335384 
0.000359553 
0.000415393 
9.74538e-05 
8.86676e-05 
9.51522e-05 
0.000138142 
0.000173095 
0.000132601 
0.000143497 
0.000223811 
0.000270317 
0.000216034 
0.000212608 
0.00025401 
0.000235293 
0.000188894 
-0.00115585 
-0.00150776 
-0.0015803 
-0.00151913 
-0.0019648 
-0.00136111 
-0.00169193 
-0.00253956 
-0.010801 
-0.00398156 
-0.0039293 
-0.0047314 
-0.0151367 
-0.0065771 
-0.0018065 
-0.00197794 
-0.00248048 
-0.00369139 
-0.00318343 
-0.00250327 
-0.00286703 
-0.00542933 
-0.00499627 
-0.00483727 
-0.00504824 
-0.00665639 
-0.00397205 
-0.00332942 
0.000317023 
0.000226918 
0.000247379 
0.000126903 
0.000101918 
0.000105771 
0.000108547 
0.000240489 
0.000229857 
0.000323548 
0.00021594 
0.000164198 
7.32496e-05 
0.000106323 
8.30435e-05 
3.52757e-05 
4.79152e-05 
3.10727e-07 
-3.1108e-05 
-3.388e-05 
0.000235173 
8.71426e-05 
3.30247e-05 
0.000129388 
-0.0128563 
-0.00354375 
-0.0015875 
-0.00470721 
-0.00245675 
0.000822404 
-0.00362727 
-0.000398842 
-0.00157366 
-0.000456128 
-0.0084304 
-0.00442731 
-0.00218814 
-0.00105626 
-0.00122858 
-0.00570785 
0.00014037 
7.76857e-05 
-0.00332145 
-0.00859487 
0.00488467 
0.00299935 
0.0028442 
0.000268531 
-0.00293875 
0.00118263 
-0.000448235 
-0.00241377 
0.000137245 
0.000188007 
0.000226909 
0.000116152 
0.000103791 
6.29939e-05 
8.95096e-05 
9.2822e-05 
6.71459e-05 
3.77482e-05 
7.60266e-05 
8.85552e-05 
4.88047e-05 
3.28242e-05 
7.10675e-05 
8.38422e-05 
0.000141303 
0.000149095 
0.00021827 
0.000319982 
0.000139541 
0.000189698 
0.000312044 
0.00029197 
0.00010793 
0.000144961 
0.000185527 
0.000152774 
9.79232e-05 
0.000107288 
0.000119996 
0.000116512 
-0.00202894 
-0.00421666 
-8.45037e-05 
0.000349885 
-0.00270871 
-0.00140075 
-0.00128951 
-0.00160841 
-0.0024904 
-0.00167671 
-0.00159848 
-0.00168796 
-0.00218096 
-0.00154044 
-0.00159018 
-0.0016514 
-0.00411758 
-0.00522541 
-0.00752789 
-0.00331266 
-0.0100633 
-0.0144173 
-0.00185215 
-0.00312094 
-0.00355511 
-0.00180819 
-0.00195728 
-0.00215511 
4.29993e-05 
3.14622e-05 
6.9401e-05 
8.41249e-05 
4.01346e-05 
3.21808e-05 
7.19002e-05 
8.8123e-05 
2.1129e-05 
2.98441e-05 
7.07038e-05 
9.08315e-05 
9.80671e-05 
0.00010045 
0.000109412 
0.000112596 
0.000103132 
0.000103354 
0.000111165 
0.000114871 
0.000120923 
0.000107998 
0.000111914 
0.000125889 
-0.00212381 
-0.00148179 
-0.00157972 
-0.00167473 
-0.00229689 
-0.00154812 
-0.00164918 
-0.00178444 
-0.00339298 
-0.0017872 
-0.00187374 
-0.00267425 
-0.00182045 
-0.00189213 
-0.00205956 
-0.00190732 
-0.00192601 
-0.00206374 
-0.00283622 
-0.00211979 
-0.00223597 
0.000336032 
0.000243866 
0.000176775 
0.000204101 
0.000296738 
0.000303212 
0.000239832 
0.000262691 
0.000165275 
0.000205029 
0.000220911 
0.000204411 
0.000126791 
0.000141136 
0.000159487 
0.000153856 
0.000234968 
0.000211019 
0.000300564 
0.000492558 
0.000383848 
0.000384589 
0.000534672 
0.00067677 
0.000278016 
0.000419306 
0.000583985 
0.000509902 
0.000179503 
0.000253279 
0.000320742 
0.000252418 
-0.00968912 
-0.0055498 
-0.00237882 
-0.00217011 
-0.0028548 
-0.00123492 
-0.00011408 
-0.00327213 
-0.00360385 
-0.00273438 
-0.0046852 
-0.00886354 
-0.00256151 
-0.00279398 
-0.00427679 
-0.00408123 
-0.00235492 
-0.00251658 
-0.00285628 
-0.00292836 
-0.00452742 
-0.0013777 
-0.00872847 
-0.0157753 
-0.0114568 
-0.0092067 
-0.00612201 
-0.0111604 
-0.0218446 
-0.00336083 
-0.00517466 
-0.00603274 
0.00012096 
0.000125679 
0.000136655 
0.000136137 
0.000122594 
0.000124233 
0.000131225 
0.000131928 
0.000138165 
0.000125826 
0.000127706 
0.00014023 
0.000145142 
0.000167333 
0.000183202 
0.000160967 
0.000136889 
0.000142063 
0.000145818 
0.00013761 
0.00014827 
0.000135567 
0.000132669 
0.000137878 
-0.0021236 
-0.00216299 
-0.00311023 
-0.00226374 
-0.002386 
-0.00256612 
-0.00254377 
-0.00227528 
-0.00231628 
-0.00241558 
-0.00244733 
-0.00329675 
-0.0024705 
-0.00254299 
-0.00345368 
-0.00265416 
-0.00310411 
-0.00322364 
-0.00248149 
-0.00255816 
-0.00255326 
-0.00343243 
-0.00257077 
-0.0025183 
0.00060267 
0.000403314 
0.000339775 
0.00036776 
0.000700108 
0.000632449 
0.000481965 
0.000425424 
0.000536029 
0.000582172 
0.000457406 
0.000359147 
0.000265294 
0.00035796 
0.000310365 
0.000215473 
0.000277598 
0.000226113 
0.000291486 
0.000385684 
0.000398611 
0.000362231 
0.000396484 
0.000414739 
0.000330845 
0.00040125 
0.000413161 
0.000307524 
0.000199489 
0.000260157 
0.000242619 
0.00016607 
0.000486878 
0.000362511 
0.00024154 
0.000145332 
-0.0211383 
-0.0215639 
-0.0131952 
-0.00418856 
-0.0156681 
-0.00760321 
-0.00329927 
-0.00298274 
-0.0109625 
-0.00517977 
-0.00351538 
-0.00717809 
-0.00929821 
-0.00808832 
-0.00631031 
-0.00629525 
-0.00394022 
-0.00432009 
-0.00395653 
-0.0032048 
-0.00351342 
-0.00399336 
-0.0107367 
-0.012944 
-0.0135079 
-0.00693833 
-0.00754421 
-0.00625806 
-0.00707028 
-0.0124985 
-0.00670418 
-0.00362437 
-0.00295652 
-0.00384859 
-0.00327774 
-0.00221776 
0.00016257 
0.000191375 
0.000182223 
0.000146335 
0.000136598 
0.000142284 
0.000137467 
0.000122493 
0.000136531 
0.000126953 
0.000118526 
0.00011569 
0.000137803 
0.000154084 
0.000142543 
0.00011522 
0.000115474 
0.000118969 
0.000110409 
9.71098e-05 
0.000108687 
0.000103313 
9.40153e-05 
8.84561e-05 
0.000105687 
9.00507e-05 
8.3561e-05 
-0.00275728 
-0.00242057 
-0.00320921 
-0.00267109 
-0.00294579 
-0.00273945 
-0.00232091 
-0.0023219 
-0.0023706 
-0.00222488 
-0.00202048 
-0.00293486 
-0.00224913 
-0.00209687 
-0.00249269 
-0.0021342 
-0.00230259 
-0.00206987 
-0.0017327 
-0.00185646 
-0.0018731 
-0.00170152 
-0.00152562 
-0.00218853 
-0.00173191 
-0.00157482 
-0.00179234 
0.000460692 
0.000472651 
0.000454269 
0.00043956 
0.000418731 
0.000294821 
0.000274931 
0.000225511 
0.00016134 
0.000163646 
0.00013766 
0.000108853 
0.000387033 
0.000306641 
0.000227328 
0.000285589 
0.00027067 
0.000321416 
0.000268838 
0.000255123 
0.000148883 
0.000189525 
0.00017411 
0.000159534 
0.000101335 
0.000115531 
0.000107542 
0.000111326 
-0.0153468 
-0.0137619 
-0.00892807 
-0.00962366 
-0.00440234 
-0.00756035 
-0.00790346 
-0.00420836 
-0.00267698 
-0.00310085 
-0.00297024 
-0.00229386 
-0.00194643 
-0.00210565 
-0.00191919 
-0.00162224 
-0.00636558 
-0.00734043 
-0.00253482 
-0.00282336 
-0.0043491 
-0.00658766 
-0.00540049 
-0.00407906 
-0.00223855 
-0.0029868 
-0.00278305 
-0.00276639 
-0.00154131 
-0.00175826 
-0.0016907 
-0.00215714 
0.000111211 
0.000100938 
8.80725e-05 
9.20946e-05 
8.5881e-05 
7.83319e-05 
8.04951e-05 
7.50589e-05 
7.52993e-05 
8.3793e-05 
8.76331e-05 
8.27282e-05 
9.51043e-05 
7.68126e-05 
7.84764e-05 
7.58449e-05 
9.0758e-05 
7.93019e-05 
7.43188e-05 
7.24296e-05 
8.93739e-05 
-0.00156779 
-0.00162564 
-0.0014957 
-0.00134681 
-0.00139413 
-0.00140595 
-0.00131604 
-0.00125205 
-0.0016031 
-0.00131348 
-0.00125995 
-0.00157379 
-0.00129845 
-0.00135647 
-0.00135293 
-0.00199458 
-0.00125135 
-0.00125892 
-0.00130552 
-0.00211175 
-0.00172048 
-0.00133175 
-0.00143534 
-0.00300779 
