ITEM: TIMESTEP
5000000
ITEM: NUMBER OF ATOMS
896
ITEM: BOX BOUNDS pp pp ff
-1.7153631884999999e+01 1.8003017117999999e+01
-1.7855467918999999e+01 1.7553981017000002e+01
-3.4618715923000003e+01 3.4618715923000003e+01
ITEM: ATOMS q 
0 
0 
0 
0 
0 
0 
0 
0 
0 
0 
0 
0 
0 
0 
0 
0 
0 
0 
0 
0 
0 
0 
0 
0 
0 
0 
0 
0 
0 
0 
0 
0 
0 
0 
0 
0 
0 
0 
0 
0 
0 
0 
0 
0 
0 
0 
0 
0 
0 
0 
0 
0 
0 
0 
0 
0 
0 
0 
0 
0 
0 
0 
0 
0 
0 
0 
0 
0 
0 
0 
0 
0 
0 
0 
0 
0 
0 
0 
0 
0 
0 
0 
0 
0 
0 
0 
0 
0 
0 
0 
0 
0 
0 
0 
0 
0 
0 
0 
0 
0 
0 
0 
0 
0 
0 
0 
0 
0 
0 
0 
0 
0 
0 
0 
0 
0 
0 
0 
0 
0 
0 
0 
0 
0 
0 
0 
0 
0 
0 
0 
0 
0 
0 
0 
0 
0 
0 
0 
0 
0 
0 
0 
0 
0 
0 
0 
0 
0 
0 
0 
0 
0 
0 
0 
0 
0 
0 
0 
0 
0 
0 
0 
0 
0 
0 
0 
0 
0 
0 
0 
0 
0 
0 
0 
0 
0 
0 
0 
0 
0 
0 
0 
0 
0 
0 
0 
0 
0 
0 
0 
0 
0 
0 
0 
0 
0 
0 
0 
0 
0 
0 
0 
0 
0 
0 
0 
0 
0 
0 
0 
0 
0 
0 
0 
0 
0 
0 
0 
0 
0 
0 
0 
0 
0 
0 
0 
0 
0 
0 
0 
0 
0 
0 
0 
0 
0 
0 
0 
0 
0 
0 
0 
0 
0 
0 
0 
0 
0 
0 
0 
0 
0 
0 
0 
0 
0 
0 
0 
0 
0 
0 
0 
0 
0 
0 
0 
0 
0 
0 
0 
0 
0 
0 
0 
0 
0 
0 
0 
0 
0 
0 
0 
0 
0 
0 
0 
0 
0 
0 
0 
0 
0 
0 
0 
0 
0 
0 
0 
0 
0 
0 
0 
0 
0 
0 
0 
0 
0 
0 
0 
0 
0 
0 
0 
0 
0 
0 
0 
0 
0 
0 
0 
0 
0 
0 
0 
0 
0 
0 
0 
0 
0 
0 
0 
0 
0 
0 
0 
0 
0 
0 
0 
0 
0 
0 
0 
0 
0 
0 
0 
0 
0 
0 
0 
0 
0 
0 
0 
0 
0 
0 
0 
0 
0 
0 
0 
0 
0 
0 
0 
0 
0 
0 
0 
0 
0 
0 
0 
0 
0 
0 
0 
0 
0 
0 
0 
0 
0 
0 
0 
0 
0 
0 
0 
0 
0 
0 
0 
0 
0 
0 
0 
0 
0 
0 
0 
0 
0 
0 
0 
0 
0 
0 
0 
0 
0 
0 
0 
0 
0 
0 
0 
0 
0 
0 
0 
0 
0 
0 
0 
0 
0 
0 
0 
0 
0 
0 
0 
0 
0 
0 
0 
0 
0 
0 
0 
0 
0 
0 
0 
0 
0 
0 
0 
0 
0 
0 
0 
0 
0 
0 
0 
0 
0 
0 
0 
0 
0 
0 
0 
0 
0 
0 
0 
0 
0 
0 
0 
0 
0 
0 
0 
0 
0 
0 
0 
0 
0 
0 
0 
0 
0 
0 
0 
0 
0 
0 
0 
0 
0 
0 
0 
0 
0 
0 
0 
0 
0 
0 
0 
0 
0 
0 
0 
0 
0 
0 
0 
0 
0 
0 
0 
0 
0 
0 
0 
0 
0 
0 
0 
0 
0 
0 
0 
0 
0 
0 
0 
0 
0 
0 
0 
0 
0 
0 
0 
0 
0 
0 
0 
0 
0 
0 
0 
0 
0 
0 
0 
0 
0 
0 
0 
0 
0 
0 
0 
0 
0 
0 
0 
0 
0 
0 
0 
0 
0 
0 
0 
0 
0 
0 
0 
0 
0 
0 
0 
0 
0 
0 
0 
0 
0 
0 
0 
0 
0 
0 
0 
0 
0 
0 
0 
0 
0 
0 
0 
0 
0 
0 
0 
0 
0 
0 
0 
0 
0 
0 
0 
0 
0 
0 
0 
0 
0 
0 
0 
0 
0 
0 
0 
0 
0 
0 
0 
0 
0 
0 
0 
0 
0 
0 
0 
0 
0 
0 
0 
0 
0 
0 
0 
0 
0 
0 
0 
0 
0 
0 
0 
0 
0 
0 
0 
0 
0 
0 
0 
0 
0 
0 
0 
0 
0 
0 
0 
0 
0 
0 
0 
0 
0 
0 
0 
0 
0 
0 
0 
0 
0 
0 
0 
0 
0 
0 
0 
0 
0 
0 
0 
0 
0 
0 
0 
0 
0 
0 
0 
0 
0 
0 
0 
0 
0 
0 
0 
0 
0 
0 
0 
0 
0 
0 
0 
0 
0 
0 
0 
0 
0 
0 
0 
0 
0 
0 
0 
0 
0 
0 
0 
0 
0 
0 
0 
0 
0 
0 
0 
0 
0 
0 
0 
0 
0 
0 
0 
0 
0 
0 
0 
0 
0 
0 
0 
0 
0 
0 
0 
0 
0 
0 
0 
0 
0 
0 
0 
0 
0 
0 
0 
0 
0 
0 
0 
0 
0 
0 
0 
0 
0 
0 
0 
0 
0 
0 
0 
0 
0 
0 
0 
0 
0 
0 
0 
0 
0 
0 
0 
0 
0 
0 
0 
0 
0 
0 
0 
0 
0 
0 
0 
0 
0 
0 
0 
0 
0 
0 
0 
0 
0 
0 
0 
0 
0 
0 
0 
0 
0 
0 
0 
0 
0 
0 
0 
0 
0 
0 
0 
0 
0 
0 
0 
0 
0 
0 
0 
0 
0 
0 
0 
0 
0 
0 
0 
0 
0 
0 
0 
0 
0 
0 
0 
0 
0 
0 
0 
0 
0 
0 
0 
0 
0 
0 
0 
0 
0 
0 
0 
0 
0 
0 
0 
0 
0 
0 
0 
0 
0 
ITEM: TIMESTEP
6000000
ITEM: NUMBER OF ATOMS
896
ITEM: BOX BOUNDS pp pp ff
-1.7153631884999999e+01 1.8003017117999999e+01
-1.7855467918999999e+01 1.7553981017000002e+01
-3.4618715923000003e+01 3.4618715923000003e+01
ITEM: ATOMS q 
-7.36683e-05 
-6.90078e-05 
-2.72485e-05 
-1.54048e-06 
-6.40028e-05 
-3.71077e-05 
-5.56441e-06 
1.06278e-05 
-6.27337e-05 
-3.22961e-05 
4.2338e-06 
2.67044e-05 
-2.33868e-05 
2.68788e-05 
6.80469e-06 
-1.04466e-05 
-5.58835e-06 
1.32725e-05 
2.35174e-05 
1.82206e-05 
2.34864e-05 
3.73678e-05 
4.26602e-05 
3.56881e-05 
4.65722e-05 
7.16016e-05 
6.06829e-05 
7.96222e-05 
-0.0014339 
-0.00131108 
-0.00136236 
-0.00122489 
-0.00158564 
-0.00111856 
-0.00124133 
-0.00142772 
-0.00196256 
-0.00131914 
-0.00148763 
-0.00173059 
-0.00170646 
-0.00187792 
-0.00128828 
-0.0014573 
-0.00141914 
-0.00154481 
-0.00142664 
-0.00144502 
-0.00191207 
-0.00179257 
-0.0019496 
-0.00218901 
-0.00273441 
-6.27439e-05 
7.15722e-05 
-3.40377e-05 
1.70597e-05 
0.000115702 
0.00021213 
6.55203e-05 
8.42665e-05 
0.000276547 
0.000290339 
0.000119147 
9.21571e-05 
0.000230282 
0.000249838 
8.27726e-05 
0.000131097 
0.00018716 
0.000124216 
0.000160421 
0.000330522 
0.000267794 
0.000237733 
0.000344345 
0.000416303 
0.00030585 
0.000281648 
0.000315713 
0.000288804 
-0.00313626 
-0.00208325 
-0.0104639 
-0.00329869 
-0.00283235 
-0.00302844 
-0.015896 
-0.0142878 
-0.00539223 
-0.00458573 
-0.00785724 
-0.00610474 
-0.00530635 
-0.00851871 
-0.00218093 
-0.00253941 
-0.00248726 
-0.00297763 
-0.00494209 
-0.00528496 
-0.0221899 
-0.00691152 
-0.0048662 
-0.00805312 
1.17572e-05 
-1.06048e-05 
-1.3058e-05 
6.09131e-06 
4.43444e-05 
2.77194e-05 
2.62091e-05 
5.49718e-05 
0.000103353 
8.15853e-05 
9.86817e-05 
0.00017489 
0.000168492 
0.000226981 
-9.65201e-07 
-2.4905e-05 
-3.14869e-05 
-1.61391e-05 
4.97908e-05 
1.30718e-05 
4.29217e-06 
1.98467e-05 
0.000164455 
8.27615e-05 
6.04473e-05 
7.26741e-05 
0.000150897 
7.67375e-05 
-0.00128149 
-0.00171926 
-0.00261855 
-0.00119627 
-0.00122897 
-0.001024 
-0.000908195 
-0.00171272 
-0.00135617 
-0.00121453 
-0.00155144 
-0.00333333 
-0.00257766 
-0.00258996 
-0.00429375 
-0.00711029 
-0.00967602 
-0.000748469 
-0.000704107 
-0.000504081 
-0.00135737 
-0.000857228 
-0.000698725 
-0.00348388 
-0.00184315 
-0.00161192 
-0.00321068 
-0.00314213 
0.00018994 
0.000237559 
0.000385598 
0.000272045 
0.000255505 
0.00020348 
0.00047667 
0.000414237 
0.000259247 
0.000204891 
0.000235266 
0.000306817 
0.000212115 
0.000117533 
0.00018831 
-2.27332e-05 
4.74886e-05 
2.44348e-05 
-0.000117299 
-0.000158751 
8.36787e-05 
-2.55246e-05 
-0.000115337 
-7.12773e-05 
0.000139444 
9.65011e-05 
1.71989e-05 
4.42446e-06 
-0.00343996 
-0.0105741 
-0.0191271 
-0.00590649 
-0.00663175 
-0.009704 
-0.00752674 
-0.00679148 
-0.00555482 
-0.00068859 
-0.00822539 
-0.00625528 
-0.00268236 
-0.00207338 
-0.00198325 
-0.00324225 
-0.00423914 
-0.0103973 
-0.00152953 
0.00460831 
0.00871587 
0.0047342 
-0.000606076 
0.00311434 
0.00487485 
-0.00716248 
0.000146746 
0.00167861 
-2.30943e-05 
-4.32617e-05 
-4.82408e-05 
-3.34881e-05 
8.1751e-06 
-1.43113e-05 
-2.09003e-05 
-8.4084e-06 
5.39761e-05 
2.86556e-05 
1.71019e-05 
5.21852e-05 
6.78179e-05 
8.26885e-05 
-3.67984e-05 
-5.2531e-05 
-5.29339e-05 
-3.86842e-05 
-1.30157e-05 
-2.81172e-05 
-3.01051e-05 
-1.63399e-05 
5.54899e-05 
1.57246e-05 
1.42666e-05 
7.04942e-05 
0.000163213 
0.000187251 
-3.87616e-05 
-1.92774e-05 
5.34713e-05 
-0.00044666 
-0.000929779 
-0.00252208 
-0.000339552 
-0.000280787 
-0.000193402 
-0.000197164 
-0.000765365 
-0.000429033 
-0.000347603 
-0.000541752 
-0.00191514 
-0.00106259 
-0.000914241 
-0.00150846 
-0.00244979 
-0.00211169 
-0.000171277 
-0.000160443 
-0.000193815 
-0.000182651 
-0.000492553 
-0.000271977 
-0.000262049 
-0.000415251 
-0.00149081 
-0.000865075 
-0.000798333 
-0.00122671 
-0.00346601 
-0.00325631 
1.04258e-05 
0.000170936 
-6.20229e-05 
2.57992e-05 
0.000184991 
0.000349833 
6.85528e-06 
8.16397e-05 
0.000333137 
0.000380049 
-2.69562e-05 
7.73348e-05 
0.000221159 
0.000155789 
0.000257199 
0.000369755 
0.000535133 
0.000474655 
0.000570089 
0.000614591 
0.000479795 
0.000596641 
0.000626267 
0.000658129 
0.000273546 
0.000429951 
0.000579554 
0.000508406 
0.000277365 
0.000487867 
0.000600745 
0.000482447 
-0.0029229 
0.00453961 
0.000433198 
0.000989771 
-0.00278442 
-0.00398337 
-0.00373046 
-0.00471913 
-0.0070324 
-0.0115722 
-0.00513855 
-0.0122638 
-0.0189104 
-0.00686527 
-0.003862 
-0.00839902 
-0.0092674 
-0.00583248 
-0.00607627 
-0.00463836 
-0.017611 
-0.0213959 
-0.0172927 
-0.0129553 
-0.00763011 
-0.0145936 
-0.0165775 
-0.0186872 
-0.00813427 
-0.0138382 
-0.0270529 
-0.019146 
-5.15416e-05 
-4.82628e-05 
-3.56542e-05 
-3.24402e-05 
-3.19032e-05 
-2.73592e-05 
-3.80823e-06 
-1.21729e-05 
-4.97787e-06 
9.60355e-05 
4.03168e-05 
-3.27365e-05 
-4.22502e-05 
-4.3462e-05 
-4.8555e-05 
-2.66974e-05 
-2.7944e-05 
-2.49766e-05 
-4.17604e-05 
-1.58927e-05 
-2.20451e-05 
-2.16269e-05 
-3.55238e-05 
-1.20587e-05 
-1.55162e-05 
-0.000215895 
-0.000295706 
-0.000416483 
-0.000349783 
-0.000390181 
-0.000273391 
-0.000322241 
-0.000393289 
-0.000992651 
-0.000518174 
-0.000469524 
-0.000540467 
-0.00111191 
-0.000710663 
-0.000450141 
-0.000642773 
-0.000912748 
-0.00116674 
-0.000474591 
-0.000503305 
-0.000653822 
-0.00124134 
-0.000553497 
-0.000559526 
-0.000721064 
-0.00149832 
-0.000640901 
-0.000845415 
3.91778e-05 
0.00030434 
0.000116603 
7.55158e-05 
0.000410484 
0.000166401 
7.33852e-05 
0.000433446 
0.000132095 
5.36112e-05 
-1.75882e-06 
-2.70496e-05 
1.20954e-05 
4.37051e-06 
2.15722e-07 
1.80797e-05 
3.54918e-05 
5.87205e-05 
8.13852e-05 
0.000202522 
5.07695e-05 
0.000114409 
0.000258751 
0.000390777 
-0.00241346 
-0.000671222 
-0.00337665 
-0.0017652 
-0.00068363 
-0.000802302 
-0.00563588 
-0.000991966 
0.00067849 
0.00136458 
-0.00496214 
0.00106031 
0.00527757 
0.00121024 
-0.00060821 
-0.00224826 
-0.000503108 
-0.000601303 
-0.00103502 
-0.00361753 
-0.00674836 
-0.00312398 
-0.00204727 
-0.00412078 
-0.00418166 
-0.014357 
-0.00998688 
-0.0108788 
0.000169586 
1.80987e-05 
0.000179562 
0.000288274 
0.00021208 
2.52224e-05 
0.000208948 
0.000245735 
0.000141927 
8.04832e-05 
0.000138494 
0.000100607 
4.50001e-05 
1.36893e-05 
2.6495e-05 
2.47912e-05 
0.000353676 
0.000325242 
0.000290509 
0.000179316 
0.000284591 
0.000324507 
0.000218269 
6.14321e-05 
0.000129446 
0.000198463 
0.000109541 
7.83707e-05 
6.8478e-05 
0.000115237 
0.000154932 
0.000120467 
-0.0106174 
-0.00223778 
-0.00787685 
-0.00986736 
-0.0111629 
-0.0089419 
-0.00573735 
-0.0107159 
-0.000894383 
-0.00368926 
-0.005491 
-0.00240426 
-0.00179449 
-0.001065 
-0.00129947 
-0.00127729 
-0.0131289 
-0.00791919 
-0.00437955 
-0.00891143 
-0.00758316 
0.00240612 
-0.0025926 
-0.00175159 
0.00196219 
-0.0044723 
-0.00806638 
-0.00773088 
-2.64228e-05 
-2.55137e-05 
-1.69253e-06 
3.36227e-06 
-5.50795e-05 
-3.75696e-05 
-1.14518e-05 
-5.85014e-06 
-8.83554e-05 
-4.17093e-05 
-1.84977e-05 
-2.65758e-05 
1.7524e-05 
5.9608e-05 
8.14046e-05 
3.8292e-05 
-4.31324e-07 
8.9387e-06 
1.21274e-05 
-4.11826e-07 
-1.36174e-05 
-3.38264e-06 
-5.02482e-06 
-1.5871e-05 
-0.00181064 
-0.00109677 
-0.00103528 
-0.00102863 
-0.00150048 
-0.00100823 
-0.000913689 
-0.000919571 
-0.0016527 
-0.00097272 
-0.000964499 
-0.00128547 
-0.00106345 
-0.0032698 
-0.00312859 
-0.000884817 
-0.000947078 
-0.000902206 
-0.00130666 
-0.000947854 
-0.000912867 
-2.46059e-07 
5.20584e-05 
-5.06437e-07 
-0.000112955 
-0.000134831 
-0.000154118 
-0.00021725 
-0.000198322 
-2.79777e-06 
-0.000147474 
-0.000160885 
-1.34675e-05 
8.76972e-05 
3.38603e-05 
2.56403e-05 
9.65538e-05 
-7.95052e-05 
3.56076e-05 
-6.28299e-06 
-0.000108986 
-0.000148319 
-0.000127904 
-0.00010763 
-4.41946e-05 
9.57043e-05 
-2.32146e-06 
6.35442e-05 
0.000153423 
0.000180851 
0.0001966 
0.000203242 
0.000162378 
0.000375679 
0.00561765 
-1.98358e-05 
-0.00331563 
0.00339724 
0.00162202 
-0.00306509 
6.31263e-05 
0.00654854 
0.00657914 
0.00618213 
0.00498974 
0.0016524 
0.00439067 
0.00290182 
-0.00734429 
0.00045366 
0.000813462 
-0.00669371 
-0.00806675 
-0.000746804 
-0.00176344 
0.001288 
0.00153657 
0.0024021 
0.00406984 
-0.00686533 
-0.00239251 
-0.00468946 
-0.00782316 
-0.00705785 
-0.00385704 
2.97845e-05 
4.03815e-05 
4.53704e-05 
4.07106e-05 
-1.93614e-06 
3.71911e-06 
5.96181e-06 
-1.24245e-06 
-1.56223e-05 
-7.35699e-06 
-1.00066e-05 
-2.26855e-05 
6.40298e-05 
0.000141387 
0.000130462 
5.49047e-05 
7.48523e-07 
2.70151e-05 
2.46885e-05 
-5.84658e-06 
-2.61598e-05 
-1.222e-05 
-1.65701e-05 
-3.58877e-05 
-0.00083421 
-0.000803096 
-0.00123624 
-0.000775268 
-0.00101748 
-0.0027578 
-0.00205389 
-0.000779224 
-0.00084014 
-0.000971488 
-0.000841601 
-0.00111546 
-0.000808064 
-0.000753001 
-0.000897982 
-0.00220149 
-0.00336418 
-0.00225859 
-0.000810473 
-0.00109589 
-0.000969182 
-0.000712415 
-0.00059556 
-0.000496276 
-0.000159144 
-8.50789e-05 
-2.00382e-05 
-4.3977e-05 
-1.05661e-05 
-0.000103929 
-7.19877e-05 
5.4077e-06 
0.000130641 
7.04883e-05 
6.02766e-05 
7.52808e-05 
0.000104859 
0.000114512 
7.98313e-05 
4.70443e-05 
4.20698e-05 
0.000197733 
0.000287327 
0.000119117 
6.39986e-06 
8.389e-06 
-9.90096e-07 
-1.70447e-05 
5.11983e-05 
2.82524e-05 
1.56893e-05 
3.95503e-05 
3.63434e-05 
4.345e-05 
4.48278e-05 
4.24514e-05 
0.000102462 
1.20757e-05 
6.79776e-05 
6.32071e-05 
0.00683626 
-0.00169125 
-0.00474452 
-0.00270585 
0.00614616 
9.59249e-05 
-0.00175874 
-2.69045e-05 
-0.00141325 
0.00239577 
-0.000490612 
-0.00177014 
-0.00392757 
-0.00364867 
-0.00222737 
-0.00218702 
-0.00201206 
-0.0024608 
-0.0020563 
-0.00158838 
-0.00214172 
-0.00882068 
-0.00751345 
0.000556369 
-0.000820753 
0.00208638 
0.00306412 
-0.000234006 
-0.00194223 
-0.00127281 
-0.000735139 
-0.00229941 
-0.00161617 
-0.0018132 
-0.0023064 
-0.00232898 
3.38385e-05 
5.23159e-05 
3.14507e-05 
4.24052e-06 
-1.21652e-05 
-1.25692e-06 
-8.49615e-06 
-2.37892e-05 
-4.15373e-05 
-2.72014e-05 
-3.12438e-05 
-4.88842e-05 
1.53266e-06 
1.70971e-05 
2.20185e-05 
7.32846e-06 
-2.49391e-05 
-1.40165e-05 
-1.14393e-05 
-2.23203e-05 
-5.08406e-05 
-3.44322e-05 
-3.35523e-05 
-5.04312e-05 
1.58436e-05 
-1.88709e-05 
-4.78526e-05 
-0.00124073 
-0.000577361 
-0.000455939 
-0.00101571 
-0.00132518 
-0.00123804 
-0.000878684 
-0.000478415 
-0.000646137 
-0.000600665 
-0.000388878 
-0.000312415 
-0.000299408 
-0.000257791 
-0.000203824 
-0.000919318 
-0.00130999 
-0.00149041 
-0.00116186 
-0.000405896 
-0.000655515 
-0.000721271 
-0.000511957 
-0.000198447 
-0.000272165 
-0.000311656 
-0.000268532 
0.000217381 
9.76057e-05 
0.00013664 
2.87537e-05 
0.000147375 
0.000208483 
7.23372e-05 
0.000144606 
0.000166588 
9.33547e-05 
0.000130966 
0.000110708 
0.000216528 
0.000175216 
0.00030041 
0.000601558 
0.00031732 
0.000324751 
0.000447985 
0.000564976 
0.000210133 
0.000283437 
0.0002954 
0.000305772 
0.000131705 
0.000188969 
0.000210095 
0.000187806 
-0.000714831 
0.00121404 
0.00206676 
-0.00471923 
-0.00231156 
-0.00256068 
-0.0122636 
-0.0112892 
-0.00375293 
-0.00359485 
-0.00457006 
-0.00397049 
-0.00307818 
-0.00459365 
-0.00434891 
-0.00330114 
-0.00602379 
-0.00505171 
-0.00827377 
-0.0254245 
-0.0069778 
-0.00864159 
-0.0262142 
-0.0167269 
-0.00590537 
-0.00566341 
-0.0038089 
-0.0036674 
-0.00400554 
-0.00749937 
-0.00735997 
-0.00434006 
4.93344e-05 
6.42528e-05 
3.45437e-05 
-1.06092e-06 
4.24409e-06 
-1.04141e-05 
-2.85915e-05 
-2.56051e-05 
-4.3188e-05 
4.146e-05 
9.03139e-05 
9.43768e-05 
4.86881e-05 
-6.20178e-06 
1.51729e-05 
1.59242e-05 
-1.53296e-05 
-3.78678e-05 
-1.68875e-05 
-1.58722e-05 
-5.82046e-05 
-0.0012886 
-0.00215197 
-0.0022242 
-0.00146686 
-0.000574495 
-0.00090218 
-0.000972542 
-0.000727807 
-0.000354384 
-0.0004357 
-0.000511491 
-0.000529933 
-0.0015305 
-0.00273425 
-0.00274378 
-0.00219731 
-0.000821539 
-0.00114224 
-0.00122061 
-0.00149679 
-0.000693863 
-0.000712535 
-0.00082278 
-0.00141487 
ITEM: TIMESTEP
7000000
ITEM: NUMBER OF ATOMS
896
ITEM: BOX BOUNDS pp pp ff
-1.7153631884999999e+01 1.8003017117999999e+01
-1.7855467918999999e+01 1.7553981017000002e+01
-3.4618715923000003e+01 3.4618715923000003e+01
ITEM: ATOMS q 
1.23726e-06 
-7.39309e-06 
2.00155e-05 
2.9649e-05 
8.74257e-06 
4.69733e-06 
2.50221e-05 
3.38026e-05 
9.90787e-06 
6.87753e-06 
2.85945e-05 
3.93737e-05 
8.76923e-06 
3.42805e-05 
3.27127e-05 
3.1042e-05 
3.05881e-05 
3.26444e-05 
3.89658e-05 
3.61375e-05 
3.68542e-05 
4.02321e-05 
4.72142e-05 
4.31582e-05 
4.54214e-05 
5.62914e-05 
5.76068e-05 
6.65815e-05 
-0.00119583 
-0.00103067 
-0.000978379 
-0.000788267 
-0.00123839 
-0.000802431 
-0.000783616 
-0.000827302 
-0.00133522 
-0.000862839 
-0.000863623 
-0.000970217 
-0.000982527 
-0.00103308 
-0.000782565 
-0.000960602 
-0.000894462 
-0.000834788 
-0.000787986 
-0.000783475 
-0.0010274 
-0.000930784 
-0.000945182 
-0.00129132 
-0.00139027 
1.09457e-05 
4.84823e-05 
1.37331e-05 
1.09538e-05 
4.18004e-05 
5.82159e-05 
2.72291e-05 
1.36252e-05 
4.95169e-05 
6.77851e-05 
6.64119e-05 
2.26203e-05 
5.98031e-05 
0.000100809 
6.26505e-05 
9.97675e-05 
8.22501e-05 
8.19085e-05 
0.000113564 
0.000180947 
9.35895e-05 
0.000101993 
0.000170031 
0.000213406 
0.000120208 
0.000106727 
0.000149252 
0.000139768 
-0.00150568 
-0.00122689 
-0.00170024 
-0.00114705 
-0.00126897 
-0.0014753 
-0.00188543 
-0.00129053 
-0.00144169 
-0.00158136 
-0.00234727 
-0.00145458 
-0.00158747 
-0.00198148 
-0.00142427 
-0.00197082 
-0.00198171 
-0.00253243 
-0.00217645 
-0.00253899 
-0.00581982 
-0.00178055 
-0.00199289 
-0.00358081 
3.07368e-05 
2.25635e-05 
2.12867e-05 
2.89975e-05 
4.03943e-05 
3.48044e-05 
3.42771e-05 
3.61659e-05 
5.79186e-05 
4.60711e-05 
4.30372e-05 
5.12812e-05 
8.5605e-05 
8.17061e-05 
2.94681e-05 
2.31003e-05 
4.03333e-05 
4.13775e-05 
3.4606e-05 
3.35669e-05 
3.58572e-05 
3.37633e-05 
4.20988e-05 
3.23018e-05 
2.98306e-05 
2.27832e-05 
5.3233e-05 
3.56243e-05 
-0.000744109 
-0.000842936 
-0.00113438 
-0.0007342 
-0.000778325 
-0.000775616 
-0.000747905 
-0.000826177 
-0.000757372 
-0.000755802 
-0.000753363 
-0.00107308 
-0.000870896 
-0.000793397 
-0.000681805 
-0.00124841 
-0.000860563 
-0.000804921 
-0.00102384 
-0.00143093 
-0.000742396 
-0.000807222 
-0.000856144 
-0.000547806 
-0.00065254 
-0.000654907 
-0.000205795 
-0.000257134 
0.000120679 
0.000163029 
0.000277618 
0.000224035 
0.000283249 
0.000521089 
0.000362268 
0.000416002 
0.000591202 
0.000605899 
0.00018729 
0.000339949 
0.000437636 
0.00036516 
0.000150653 
3.65617e-05 
0.000548067 
0.000294729 
0.000165787 
0.000174043 
0.000590585 
0.000542152 
0.000334549 
0.0002622 
0.000439366 
0.000496995 
0.000404152 
0.00020252 
-0.00207786 
-0.00550137 
-0.00922974 
-0.00219768 
-0.00195268 
-0.000872012 
-0.00771196 
-0.00376232 
-0.00275898 
-0.0223042 
-0.0159585 
-0.0135319 
-0.0219951 
-0.0160623 
-0.00393527 
-0.00688888 
-0.00774641 
-0.0108582 
-0.000326541 
-0.0113986 
0.000754103 
0.00057591 
-0.0137668 
-0.00637758 
0.000618552 
-0.0170075 
-0.0145961 
-0.000498011 
4.53097e-05 
7.77746e-05 
9.89836e-05 
5.99379e-05 
3.62181e-05 
4.37403e-05 
4.80575e-05 
4.2005e-05 
2.36715e-05 
3.12301e-05 
3.50238e-05 
3.41977e-05 
1.69583e-05 
2.56974e-05 
5.87211e-05 
8.3146e-05 
7.20146e-05 
5.34403e-05 
4.39262e-05 
4.86565e-05 
4.90377e-05 
4.41102e-05 
4.00325e-05 
4.15754e-05 
4.33276e-05 
4.66109e-05 
4.81891e-05 
5.45746e-05 
4.97446e-05 
4.40777e-05 
4.64893e-05 
-0.00107685 
-0.00079397 
-0.000544662 
-0.00114429 
-0.00211538 
-0.00219291 
-0.0012085 
-0.000829239 
-0.000975341 
-0.000989957 
-0.000891804 
-0.000634129 
-0.00077164 
-0.00082012 
-0.000866739 
-0.00063297 
-0.000826383 
-0.00119991 
-0.00190759 
-0.00177638 
-0.00112546 
-0.000895889 
-0.000974128 
-0.000968065 
-0.000886153 
-0.000915127 
-0.000873232 
-0.000869903 
-0.000898643 
-0.00107619 
-0.00105536 
1.50075e-05 
2.69979e-05 
2.85505e-05 
4.40851e-06 
8.88007e-06 
8.61869e-07 
4.09277e-05 
-1.07019e-05 
-4.14016e-05 
-8.14143e-05 
-1.94794e-05 
-4.08086e-05 
-0.000125344 
-0.000147279 
4.54294e-05 
7.89013e-05 
5.08008e-05 
7.40843e-05 
0.000106652 
0.000191447 
-1.4884e-05 
8.27332e-05 
0.000198462 
0.00023545 
-9.85537e-05 
-1.36296e-07 
0.000135947 
0.000162376 
7.79298e-05 
0.000195246 
0.000334195 
0.000311383 
1.66483e-05 
0.000901787 
0.00124507 
0.00265608 
-0.000310927 
-0.00103541 
0.000373476 
-0.00024969 
-0.000783382 
-0.00104378 
0.00272298 
0.000876582 
0.000189695 
0.00204205 
0.0039646 
0.00345328 
0.00498033 
0.00271408 
-0.00123384 
-0.001257 
-0.00223869 
-0.00205474 
-0.00211126 
-0.00333271 
-0.003785 
-0.00723761 
-0.00935887 
-0.0115938 
0.000338792 
-0.0010456 
-0.00669948 
-0.00719922 
5.41301e-05 
4.8732e-05 
4.42414e-05 
4.53478e-05 
4.45604e-05 
4.18083e-05 
4.23888e-05 
4.17522e-05 
4.15374e-05 
5.26127e-05 
4.86749e-05 
4.06127e-05 
3.82426e-05 
3.31913e-05 
3.78971e-05 
4.12096e-05 
4.0351e-05 
3.78895e-05 
4.29851e-05 
4.08826e-05 
4.00454e-05 
3.83742e-05 
4.40307e-05 
4.10945e-05 
3.90305e-05 
-0.00110094 
-0.00150536 
-0.00129977 
-0.000964085 
-0.000885004 
-0.000937809 
-0.00091918 
-0.000871431 
-0.000876337 
-0.000849009 
-0.000853231 
-0.000850651 
-0.000904782 
-0.000876293 
-0.000910814 
-0.00108686 
-0.00105826 
-0.00122756 
-0.000866619 
-0.000857662 
-0.000846482 
-0.00125876 
-0.000858915 
-0.00085255 
-0.000863942 
-0.00131512 
-0.000868097 
-0.00089745 
5.3186e-05 
0.000108645 
8.47208e-05 
0.000102263 
0.00027107 
0.000198987 
0.000253504 
0.000385337 
0.000391834 
0.000366228 
4.62348e-05 
4.5603e-05 
7.03319e-05 
4.78251e-05 
4.20622e-05 
5.19268e-05 
0.000155727 
8.10852e-05 
5.86424e-05 
8.9166e-05 
0.000303965 
0.000202117 
0.000142031 
0.000234432 
-0.00112666 
-0.000882845 
-0.00227038 
-0.00118708 
-0.000982609 
-0.000931504 
-0.00629819 
-0.00252237 
-0.00141897 
-0.00154368 
-0.0188998 
-0.0127658 
-0.00358584 
-0.00558584 
-0.000873814 
-0.00141521 
-0.000859844 
-0.000874664 
-0.00093572 
-0.00151564 
-0.00107614 
-0.000873759 
-0.000972319 
-0.00165689 
-0.00499402 
-0.0014049 
-0.00138457 
-0.00249485 
6.87261e-05 
2.80061e-05 
9.52635e-05 
0.000180581 
3.54526e-06 
-4.7603e-05 
0.000114449 
0.000144302 
4.29071e-05 
-0.0001389 
-2.98812e-05 
-6.04851e-05 
0.000237429 
-4.27794e-05 
-0.000151326 
-0.00011503 
0.000228229 
0.00016532 
0.000136702 
0.000138682 
0.000226255 
0.000241237 
0.000190047 
0.000214769 
6.38661e-05 
0.000190025 
0.000256721 
0.000359368 
-4.98848e-05 
5.51558e-05 
0.000267847 
0.000231537 
-0.00509217 
-0.00206132 
-0.00262669 
-0.00774162 
-0.0094365 
-0.00300709 
-0.00836976 
-0.00830404 
0.00378561 
0.00142326 
-0.000853033 
-0.00121912 
0.005509 
0.00776382 
0.00499565 
0.00308126 
-0.0054642 
-0.00125903 
-0.000480255 
-0.00629066 
-0.00435658 
-9.7915e-05 
-0.00557218 
-0.00425991 
-0.00379132 
0.000336357 
-0.00393296 
-0.0201035 
0.000163566 
2.00576e-05 
-7.35453e-05 
-1.52946e-05 
4.59419e-05 
1.27942e-05 
1.2134e-05 
3.15025e-05 
1.48409e-06 
6.03281e-06 
2.32494e-05 
2.48521e-05 
7.32727e-06 
1.27022e-05 
6.66393e-05 
1.89433e-05 
3.92363e-05 
3.98525e-05 
2.03202e-05 
1.18192e-05 
3.49207e-05 
3.77225e-05 
2.90814e-05 
2.38085e-05 
0.000120685 
0.00208371 
0.00131323 
-0.000891386 
-0.000986529 
-0.000724103 
-0.00116585 
-0.00113559 
-0.00131545 
-0.000809072 
-0.00089672 
-0.00104561 
-0.00136231 
-0.00183603 
0.00022913 
-0.00113298 
-0.00171172 
5.35906e-05 
-0.00102106 
-0.000864375 
-0.000644743 
0.000125511 
0.000174288 
0.00025515 
0.000295491 
0.000184764 
0.000152904 
0.000252293 
0.000227792 
0.000424471 
0.000278231 
0.000189483 
0.00015127 
0.00027807 
0.000339812 
0.000195424 
9.0518e-05 
0.000291808 
0.000322919 
0.000200166 
1.05614e-05 
0.000238654 
0.000226175 
5.41564e-05 
-4.93009e-05 
9.20436e-06 
5.87727e-05 
-3.98309e-05 
-8.22594e-05 
5.39001e-05 
8.32349e-07 
-1.74218e-05 
0.00014706 
-0.000441492 
-0.000455703 
-0.0187645 
-0.00889758 
-0.00248169 
-0.00462265 
-0.00411797 
-0.00464653 
-0.00139319 
-0.00559278 
-0.0164916 
-0.0116136 
-0.00877915 
-0.000539679 
0.000396046 
0.00447507 
-0.0051835 
-0.00675965 
0.000279052 
-0.00162878 
-0.00106177 
-0.00107159 
0.000925173 
-0.00249255 
-0.00201493 
0.00271631 
0.00433963 
0.00205326 
0.00280993 
-0.00142038 
0.00218643 
0.00290045 
-3.57988e-05 
6.57637e-05 
2.49471e-05 
-4.89708e-05 
-2.14105e-05 
-7.0412e-05 
-7.5617e-05 
-4.05461e-05 
1.39207e-05 
-9.33787e-06 
-1.94509e-05 
3.08776e-07 
2.62641e-05 
7.44156e-05 
0.000191789 
0.000259362 
-1.7931e-05 
2.57003e-05 
0.000126271 
0.00012769 
5.11938e-06 
2.98838e-06 
4.46054e-05 
5.76889e-05 
0.00476568 
0.000478259 
-0.000735124 
0.00656977 
0.00266562 
-0.00172825 
0.000271838 
0.000993749 
0.00191837 
0.00104927 
0.00110966 
-0.00055055 
-2.60814e-05 
0.000243245 
-0.000342343 
-0.00163786 
-0.00444753 
-0.0131622 
0.000938894 
-0.00110093 
-0.00421691 
-0.000591476 
-0.000247781 
-0.00149418 
-0.000126328 
-0.000135981 
-0.000180877 
-0.000242044 
-0.000181095 
-0.000213879 
-0.000291059 
-0.00029428 
-0.000107384 
-0.000203027 
-0.0002471 
-0.000123247 
0.000204805 
2.86782e-05 
3.4093e-05 
0.000143662 
-0.000172747 
-6.7122e-05 
5.67173e-05 
9.89092e-05 
-0.000197645 
-9.71325e-05 
7.04982e-05 
0.000205114 
-2.61975e-05 
-3.08894e-05 
0.00020564 
0.000383887 
0.000129886 
0.000127726 
0.000305562 
0.000337724 
0.000124949 
0.000290585 
0.0004625 
0.000440842 
0.00400453 
0.00280375 
0.00455765 
-0.00707349 
0.00504037 
0.00304514 
0.00119975 
0.00599914 
0.00735521 
0.0079012 
0.0100543 
0.00798604 
0.00191683 
0.00774559 
0.00937224 
0.00137786 
-0.00620298 
0.000214034 
-0.000551702 
-0.00277702 
-0.000797436 
-0.00403338 
0.000858645 
0.00157832 
-0.000388955 
-0.00122911 
-0.00672543 
-0.0100731 
-0.00316655 
-0.00655395 
-0.0103986 
-0.014295 
-0.00239481 
-0.00562475 
-0.0179728 
-0.0136908 
0.000392513 
0.0003414 
0.000282662 
0.000309635 
0.000265777 
0.000397445 
0.000405908 
0.000327667 
0.000129842 
0.000241204 
0.000301419 
0.000201987 
0.00016433 
0.000129964 
0.000168537 
0.000144143 
0.00024695 
0.000169773 
0.00010842 
0.000113324 
0.000173531 
0.000185489 
0.000120477 
9.48297e-05 
0.000199246 
9.83339e-05 
7.52701e-05 
-0.0141841 
-0.0025888 
-0.00214667 
-0.00883229 
-0.00758145 
-0.00338761 
0.00238149 
-0.0127188 
-0.0127357 
-0.0075172 
-0.00670796 
-0.00324951 
-0.00973801 
-0.00803032 
-0.0031231 
0.00113629 
-0.00225472 
-0.00415013 
-0.00254254 
-0.00171422 
-0.00102501 
-0.00217295 
-0.00213633 
-0.00269536 
-0.00271841 
-0.00236378 
-0.00216945 
0.0002285 
0.000293892 
0.000273189 
0.00016913 
0.000190219 
0.000192832 
0.000342788 
0.000226713 
0.000263822 
0.000444612 
0.000368225 
0.000412135 
0.000466178 
0.000417772 
0.000367791 
0.0004464 
0.000206315 
0.000379761 
0.000400709 
0.000389963 
0.000215931 
0.000176995 
0.00022183 
0.000332715 
0.000450274 
0.000348344 
0.000343331 
0.000525384 
0.00201811 
0.00128872 
-0.00796429 
-0.019998 
-0.00321802 
-0.0011174 
-0.00404645 
-0.00181149 
-0.00684306 
-0.00182456 
0.000672777 
-0.00150742 
-0.0101773 
-0.0066568 
-0.00579446 
-0.0133541 
-0.0207663 
-0.00834531 
-0.00283217 
-0.006838 
-0.00324193 
-0.00717135 
-0.00576942 
-0.0262883 
-0.00126669 
7.18302e-05 
-0.00546992 
-0.00300802 
-0.012184 
-0.00830894 
-0.00820223 
-0.0111089 
0.000326966 
0.00037844 
0.000277484 
0.000136135 
0.000148562 
9.16476e-05 
7.85447e-05 
6.15449e-05 
4.93598e-05 
0.000305472 
0.000422948 
0.000414214 
0.000366538 
9.09743e-05 
0.00017273 
0.000158746 
9.98832e-05 
4.38878e-05 
5.3415e-05 
4.64591e-05 
3.67228e-05 
-0.00329728 
-0.0078022 
-0.0129777 
-0.00569194 
-0.0008835 
-0.00150364 
-0.00198606 
-0.000993115 
-0.00168466 
-0.00103077 
-0.000867858 
-0.00124709 
-0.0045138 
-0.0123713 
-0.0131553 
-0.00258052 
-0.000985781 
-0.00168679 
-0.00143153 
-0.000923508 
-0.00106313 
-0.000756104 
-0.000701988 
-0.00128369 
